 Gaussian 16, Revision C.01,
 Gaussian 16:  ES64L-G16RevC.01  3-Jul-2019

 ---------------------------------------
 # opt freq b3lyp/gen nosymm pseudo=read
 ---------------------------------------

 -------------------
 Title Card Required
 -------------------
 Symbolic Z-matrix:
 Charge =  0 Multiplicity = 1

 SCF Done:  E(RB3LYP) =  -7025.49556001     A.U. after   41 cycles
 SCF Done:  E(RB3LYP) =  -7025.50487579     A.U. after   26 cycles
 SCF Done:  E(RB3LYP) =  -7025.51202331     A.U. after   25 cycles
 SCF Done:  E(RB3LYP) =  -7025.51485803     A.U. after   25 cycles
 SCF Done:  E(RB3LYP) =  -7025.51796080     A.U. after   23 cycles
 SCF Done:  E(RB3LYP) =  -7025.51876573     A.U. after   22 cycles
 SCF Done:  E(RB3LYP) =  -7025.51938890     A.U. after   22 cycles
 SCF Done:  E(RB3LYP) =  -7025.51951669     A.U. after   20 cycles
 SCF Done:  E(RB3LYP) =  -7025.51959554     A.U. after   19 cycles
 SCF Done:  E(RB3LYP) =  -7025.51964197     A.U. after   19 cycles
 SCF Done:  E(RB3LYP) =  -7025.51967516     A.U. after   20 cycles
 SCF Done:  E(RB3LYP) =  -7025.51970771     A.U. after   20 cycles
 SCF Done:  E(RB3LYP) =  -7025.51974132     A.U. after   20 cycles
 SCF Done:  E(RB3LYP) =  -7025.51976501     A.U. after   20 cycles
 SCF Done:  E(RB3LYP) =  -7025.51977136     A.U. after   17 cycles
 SCF Done:  E(RB3LYP) =  -7025.51977390     A.U. after   16 cycles
 SCF Done:  E(RB3LYP) =  -7025.51977466     A.U. after   16 cycles
 SCF Done:  E(RB3LYP) =  -7025.51977497     A.U. after   14 cycles
 SCF Done:  E(RB3LYP) =  -7025.51977505     A.U. after   13 cycles
 Optimization completed.
    -- Stationary point found.

 1\1\GINC-NODE10-IB\FOpt\RB3LYP\Gen\C1Mo8O1S16\CHESAGAR\10-Dec-2022\0\\
 # opt freq b3lyp/gen nosymm pseudo=read\\Title Card Required\\0,1\Mo,0
 .3298418499,2.3332939537,12.0973595375\S,1.2439850486,4.1420964342,11.
 0429173352\S,-1.5178147568,3.1286674575,13.1193278902\S,-0.6905285062,
 0.8529700983,10.494529529\S,1.9201503874,0.2705190349,12.2295766026\Mo
 ,-2.2683173371,2.6094282752,10.8440367909\S,-3.2997631145,1.4710870999
 ,8.8689769745\S,-1.7630007609,4.8574669151,10.0675488158\Mo,-0.0621429
 78,2.9519197298,9.4597120149\S,-0.5983424296,2.9463338979,7.0645118336

 Normal termination of Gaussian 16 at Sat Dec 10 09:07:44 2022.

 ------------------------------------------------------------------
 #N Geom=AllCheck Guess=TCheck SCRF=Check GenChk RB3LYP/ChkBas Freq
 ------------------------------------------------------------------

 Structure from the checkpoint file:  "/home/chesagar/scratch/Gau-142577.chk"
 -------------------
 Title Card Required
 -------------------
 Charge =  0 Multiplicity = 1

                          Input orientation:
 ---------------------------------------------------------------------
 Center     Atomic      Atomic             Coordinates (Angstroms)
 Number     Number       Type             X           Y           Z
 ---------------------------------------------------------------------
      1         42           0        0.329842    2.333294   12.097360
      2         16           0        1.243985    4.142096   11.042917
      3         16           0       -1.517815    3.128667   13.119328
      4         16           0       -0.690529    0.852970   10.494530
      5         16           0        1.920150    0.270519   12.229577
      6         42           0       -2.268317    2.609428   10.844037
      7         16           0       -3.299763    1.471087    8.868977
      8         16           0       -1.763001    4.857467   10.067549
      9         42           0       -0.062143    2.951920    9.459712
     10         16           0       -0.598342    2.946334    7.064512
     11         16           0        2.055569    1.738740    8.723047
     12         42           0        3.336872    1.122280   10.490159
     13         42           0       -2.630193    3.755314    8.194995
     14         16           0        4.518173    2.829800   11.527076
     15         16           0        4.701010   -0.393465    9.963380
     16         16           0       -4.892571    4.571490    8.265063
     17         16           0       -2.072872    5.835532    6.941607
     18         42           0       -5.032236    2.777680    9.652344
     19         16           0       -6.885340    1.764642    9.452330
     20         16           0       -4.503591    3.324052   11.756143
     21         42           0        3.339601    1.829483   13.273499
     22         16           0        4.650833    0.916503   14.656474
     23         16           0        1.727413    3.103259   14.147250
     24         42           0       -0.178044    5.196556    7.928871
     25          6           0        0.967807    5.714807    6.307602
     26          8           0        1.580701    6.006095    5.384577
 ---------------------------------------------------------------------

 SCF Done:  E(RB3LYP) =  -7025.51977505     A.U. after    3 cycles

 Alpha  occ. eigenvalues --  -88.94228 -88.92484 -88.91715 -88.91577 -88.91429
 Alpha  occ. eigenvalues --  -88.91343 -88.91130 -88.90177 -88.89839 -88.89406
 Alpha  occ. eigenvalues --  -88.88265 -88.88021 -88.87968 -88.87836 -88.87700
 Alpha  occ. eigenvalues --  -88.87215 -19.30121 -10.36803  -8.01609  -8.00002
 Alpha  occ. eigenvalues --   -7.99272  -7.99182  -7.98932  -7.98763  -7.98747
 Alpha  occ. eigenvalues --   -7.97816  -7.97579  -7.97128  -7.96146  -7.95935
 Alpha  occ. eigenvalues --   -7.95786  -7.95558  -7.95472  -7.95153  -5.97612
 Alpha  occ. eigenvalues --   -5.97595  -5.97535  -5.96016  -5.96000  -5.95881
 Alpha  occ. eigenvalues --   -5.95308  -5.95250  -5.95237  -5.95125  -5.95118
 Alpha  occ. eigenvalues --   -5.95079  -5.94971  -5.94912  -5.94858  -5.94809
 Alpha  occ. eigenvalues --   -5.94788  -5.94711  -5.94710  -5.94660  -5.94589
 Alpha  occ. eigenvalues --   -5.93880  -5.93735  -5.93696  -5.93650  -5.93526
 Alpha  occ. eigenvalues --   -5.93405  -5.93204  -5.93082  -5.92947  -5.92160
 Alpha  occ. eigenvalues --   -5.92072  -5.92020  -5.91938  -5.91897  -5.91847
 Alpha  occ. eigenvalues --   -5.91760  -5.91728  -5.91639  -5.91629  -5.91536
 Alpha  occ. eigenvalues --   -5.91505  -5.91446  -5.91395  -5.91276  -5.91136
 Alpha  occ. eigenvalues --   -5.91124  -5.91001  -2.57085  -2.56504  -2.56145
 Alpha  occ. eigenvalues --   -2.55811  -2.55733  -2.55494  -2.55402  -2.55144
 Alpha  occ. eigenvalues --   -1.60215  -1.59951  -1.59740  -1.59479  -1.59445
 Alpha  occ. eigenvalues --   -1.59154  -1.59030  -1.58921  -1.58719  -1.58464
 Alpha  occ. eigenvalues --   -1.58410  -1.58233  -1.58073  -1.58045  -1.58009
 Alpha  occ. eigenvalues --   -1.57718  -1.57580  -1.57189  -1.57035  -1.56960
 Alpha  occ. eigenvalues --   -1.56781  -1.56749  -1.56550  -1.56131  -1.20178
 Alpha  occ. eigenvalues --   -0.77671  -0.76012  -0.75105  -0.74351  -0.73707
 Alpha  occ. eigenvalues --   -0.73558  -0.72895  -0.72567  -0.72168  -0.71320
 Alpha  occ. eigenvalues --   -0.70906  -0.70430  -0.69733  -0.69478  -0.69201
 Alpha  occ. eigenvalues --   -0.68500  -0.62494  -0.51765  -0.51702  -0.51476
 Alpha  occ. eigenvalues --   -0.44638  -0.43905  -0.43609  -0.43442  -0.42907
 Alpha  occ. eigenvalues --   -0.42034  -0.41385  -0.41160  -0.40686  -0.40015
 Alpha  occ. eigenvalues --   -0.39893  -0.39635  -0.39405  -0.39056  -0.38519
 Alpha  occ. eigenvalues --   -0.38429  -0.38251  -0.37998  -0.37557  -0.37244
 Alpha  occ. eigenvalues --   -0.37160  -0.36646  -0.36584  -0.36293  -0.36165
 Alpha  occ. eigenvalues --   -0.35951  -0.35512  -0.35138  -0.35068  -0.34450
 Alpha  occ. eigenvalues --   -0.34288  -0.34082  -0.33874  -0.33160  -0.33072
 Alpha  occ. eigenvalues --   -0.32837  -0.32427  -0.31940  -0.31862  -0.31479
 Alpha  occ. eigenvalues --   -0.30842  -0.30583  -0.30235  -0.29637  -0.29248
 Alpha  occ. eigenvalues --   -0.28861  -0.28481  -0.27906  -0.27563  -0.27250
 Alpha  occ. eigenvalues --   -0.26497  -0.26109  -0.25854  -0.25482  -0.24994
 Alpha  occ. eigenvalues --   -0.24361
 Alpha virt. eigenvalues --   -0.19156  -0.18004  -0.16918  -0.16559  -0.15694
 Alpha virt. eigenvalues --   -0.15260  -0.14967  -0.14670  -0.14183  -0.13440
 Alpha virt. eigenvalues --   -0.12982  -0.12760  -0.12246  -0.12096  -0.11954

 Mulliken charges:
               1
     1  Mo  -0.242836
     2  S    0.189452
     3  S    0.084432
     4  S    0.246249
     5  S    0.011798
     6  Mo  -0.409090
     7  S    0.143711
     8  S    0.389252
     9  Mo  -0.391588
    10  S    0.190259
    11  S   -0.070852
    12  Mo   0.224981
    13  Mo  -0.294723
    14  S   -0.028305
    15  S   -0.175708
    16  S   -0.022277
    17  S    0.098089
    18  Mo   0.254763
    19  S   -0.211865
    20  S   -0.015340
    21  Mo   0.246104
    22  S   -0.221823
    23  S   -0.063417
    24  Mo   0.053858
    25  C    0.187318
    26  O   -0.172441
 Sum of Mulliken charges =  -0.00000

 Dipole moment (field-independent basis, Debye):
    X=             -1.0691    Y=              3.8927    Z=             -3.8626  Tot=              5.5871
 Quadrupole moment (field-independent basis, Debye-Ang):
   XX=           -432.0493   YY=           -370.2305   ZZ=           -488.0581
   XY=              6.7533   XZ=            -18.9230   YZ=             19.5810

  Exact polarizability:    1022.714     -96.549     518.702     144.903    -123.322     689.696
 Approx polarizability:    2877.817     -94.689    1732.876     233.421    -332.807    2266.577

                      1                      2                      3
                      A                      A                      A
 Frequencies --     21.7359                30.0575                46.5889
 Red. masses --     34.2445                33.0890                29.5307
 Frc consts  --      0.0095                 0.0176                 0.0378
 IR Inten    --      0.2547                 0.4974                 0.1190

                      4                      5                      6
                      A                      A                      A
 Frequencies --     56.3940                57.3684                62.7078
 Red. masses --     27.6859                22.1973                41.0107
 Frc consts  --      0.0519                 0.0430                 0.0950
 IR Inten    --      0.3026                 0.2544                 0.3465

                      7                      8                      9
                      A                      A                      A
 Frequencies --     70.2624                72.4401                76.0724
 Red. masses --     36.9197                32.9735                34.1000
 Frc consts  --      0.1074                 0.1019                 0.1163
 IR Inten    --      0.0617                 0.8122                 0.7492

                     10                     11                     12
                      A                      A                      A
 Frequencies --     83.2482                87.7766                93.4549
 Red. masses --     35.5270                41.4720                44.3371
 Frc consts  --      0.1451                 0.1883                 0.2282
 IR Inten    --      0.5919                 2.0950                 0.6487

                     13                     14                     15
                      A                      A                      A
 Frequencies --     96.8335               100.7849               103.1062
 Red. masses --     44.6380                40.0325                38.8708
 Frc consts  --      0.2466                 0.2396                 0.2435
 IR Inten    --      1.1208                 0.0984                 0.5346

                     16                     17                     18
                      A                      A                      A
 Frequencies --    110.7365               114.4746               122.3473
 Red. masses --     46.5383                36.2613                39.2585
 Frc consts  --      0.3362                 0.2800                 0.3462
 IR Inten    --      2.2597                 0.2252                 0.2279

                     19                     20                     21
                      A                      A                      A
 Frequencies --    127.6397               131.0232               144.9326
 Red. masses --     46.2699                38.2971                40.1866
 Frc consts  --      0.4441                 0.3874                 0.4974
 IR Inten    --      1.9435                 0.8760                 0.5889

                     22                     23                     24
                      A                      A                      A
 Frequencies --    146.0861               146.7414               152.0849
 Red. masses --     47.6648                42.5178                39.6197
 Frc consts  --      0.5993                 0.5394                 0.5399
 IR Inten    --      0.2877                 1.5023                 0.3098

                     25                     26                     27
                      A                      A                      A
 Frequencies --    161.3667               164.9532               173.2380
 Red. masses --     44.1862                46.2030                39.2016
 Frc consts  --      0.6779                 0.7407                 0.6932
 IR Inten    --      0.3454                 1.4598                 0.8463

                     28                     29                     30
                      A                      A                      A
 Frequencies --    176.2567               181.6451               184.4318
 Red. masses --     43.9782                43.1707                43.1339
 Frc consts  --      0.8050                 0.8392                 0.8645
 IR Inten    --      0.4350                 0.9484                 2.7514

                     31                     32                     33
                      A                      A                      A
 Frequencies --    191.3368               195.2941               205.1161
 Red. masses --     47.4017                46.8800                44.7165
 Frc consts  --      1.0224                 1.0535                 1.1085
 IR Inten    --      2.0656                 0.3778                 6.1386

                     34                     35                     36
                      A                      A                      A
 Frequencies --    211.4175               216.4629               232.7357
 Red. masses --     43.8907                34.5483                35.7630
 Frc consts  --      1.1559                 0.9538                 1.1413
 IR Inten    --      3.7618                 0.8948                 3.1941

                     37                     38                     39
                      A                      A                      A
 Frequencies --    241.2584               245.1521               253.2498
 Red. masses --     34.7033                36.7234                36.4180
 Frc consts  --      1.1901                 1.3004                 1.3761
 IR Inten    --      0.4933                16.9184                 1.9232

                     40                     41                     42
                      A                      A                      A
 Frequencies --    259.2328               265.2586               270.9572
 Red. masses --     37.2086                39.1624                39.3560
 Frc consts  --      1.4732                 1.6235                 1.7024
 IR Inten    --      1.0942                 1.1101                 5.1946

                     43                     44                     45
                      A                      A                      A
 Frequencies --    275.5601               282.7039               285.2668
 Red. masses --     39.3077                37.5554                39.9998
 Frc consts  --      1.7586                 1.7684                 1.9178
 IR Inten    --     17.2964                 2.4452                 4.3167

                     46                     47                     48
                      A                      A                      A
 Frequencies --    286.5138               301.8791               307.2678
 Red. masses --     40.0413                36.7963                36.2980
 Frc consts  --      1.9366                 1.9757                 2.0191
 IR Inten    --     18.0233                 2.6591                 3.0440

                     49                     50                     51
                      A                      A                      A
 Frequencies --    318.1087               330.7869               338.4091
 Red. masses --     39.1929                44.2847                46.1288
 Frc consts  --      2.3367                 2.8550                 3.1125
 IR Inten    --      9.7914                 0.9877                12.0646

                     52                     53                     54
                      A                      A                      A
 Frequencies --    346.1378               371.7005               386.5691
 Red. masses --     40.9734                17.3522                32.1675
 Frc consts  --      2.8923                 1.4125                 2.8322
 IR Inten    --      3.1858                60.2275                12.9842

                     55                     56                     57
                      A                      A                      A
 Frequencies --    392.7183               402.8078               407.2095
 Red. masses --     34.4721                32.1950                19.7012
 Frc consts  --      3.1324                 3.0778                 1.9248
 IR Inten    --     32.2869                 8.0743                33.8990

                     58                     59                     60
                      A                      A                      A
 Frequencies --    411.7397               415.1442               425.9486
 Red. masses --     20.0361                34.8631                33.2317
 Frc consts  --      2.0013                 3.5401                 3.5524
 IR Inten    --      1.7907                 2.4495                 7.3828

                     61                     62                     63
                      A                      A                      A
 Frequencies --    430.6226               436.6054               442.5450
 Red. masses --     36.6167                37.1724                37.5843
 Frc consts  --      4.0006                 4.1749                 4.3368
 IR Inten    --      1.2291                 3.9944                12.1701

                     64                     65                     66
                      A                      A                      A
 Frequencies --    443.4247               451.0080               456.4062
 Red. masses --     37.2060                38.1109                39.7840
 Frc consts  --      4.3103                 4.5674                 4.8827
 IR Inten    --      6.9884                34.1376                28.9246

                     67                     68                     69
                      A                      A                      A
 Frequencies --    459.0131               468.5104               561.8654
 Red. masses --     16.2132                38.9206                39.8164
 Frc consts  --      2.0127                 5.0335                 7.4059
 IR Inten    --     11.3734                 9.3563               207.4922

                     70                     71                     72
                      A                      A                      A
 Frequencies --    568.1144               572.3625              2112.3077
 Red. masses --     39.6144                39.4193                13.4130
 Frc consts  --      7.5331                 7.6085                35.2608
 IR Inten    --     70.4864               161.6795              1733.4999

 - Thermochemistry -
 -------------------
 Temperature   298.150 Kelvin.  Pressure   1.00000 Atm.
 Atom     1 has atomic number 42 and mass  97.90550

 Molecular mass:  1322.79206 amu.
 Principal axes and moments of inertia in atomic units:
                           1         2         3
     Eigenvalues --  ******************************
           X            0.87843  -0.47611   0.04092
           Y           -0.25094  -0.38672   0.88740
           Z            0.40667   0.78979   0.45918
 This molecule is an asymmetric top.
 Rotational symmetry number  1.
 Warning -- assumption of classical behavior for rotation
           may cause significant error
 Rotational temperatures (Kelvin)      0.00396     0.00156     0.00131
 Rotational constants (GHZ):           0.08261     0.03245     0.02730
 Zero-point vibrational energy     118271.9 (Joules/Mol)
                                   28.26766 (Kcal/Mol)
 Warning -- explicit consideration of  71 degrees of freedom as
           vibrations may cause significant error
 Vibrational temperatures:     31.27    43.25    67.03    81.14    82.54
          (Kelvin)             90.22   101.09   104.23   109.45   119.78
                              126.29   134.46   139.32   145.01   148.35
                              159.33   164.70   176.03   183.65   188.51
                              208.53   210.19   211.13   218.82   232.17
                              237.33   249.25   253.59   261.35   265.36
                              275.29   280.98   295.12   304.18   311.44
                              334.85   347.12   352.72   364.37   372.98
                              381.65   389.85   396.47   406.75   410.44
                              412.23   434.34   442.09   457.69   475.93
                              486.90   498.02   534.79   556.19   565.03
                              579.55   585.88   592.40   597.30   612.85
                              619.57   628.18   636.72   637.99   648.90
                              656.67   660.42   674.08   808.40   817.39
                              823.50  3039.14

 Zero-point correction=                           0.045047 (Hartree/Particle)
 Thermal correction to Energy=                    0.084867
 Thermal correction to Enthalpy=                  0.085811
 Thermal correction to Gibbs Free Energy=        -0.030139
 Sum of electronic and zero-point Energies=          -7025.474728
 Sum of electronic and thermal Energies=             -7025.434908
 Sum of electronic and thermal Enthalpies=           -7025.433964
 Sum of electronic and thermal Free Energies=        -7025.549914

                     E (Thermal)             CV                S
                      KCal/Mol        Cal/Mol-Kelvin    Cal/Mol-Kelvin
 Total                   53.255            127.998            244.037
 Electronic               0.000              0.000              0.000
 Translational            0.889              2.981             47.415
 Rotational               0.889              2.981             39.615
 Vibrational             51.477            122.036            157.007
 Vibration     1          0.593              1.985              6.469
 Vibration     2          0.594              1.984              5.826
 Vibration     3          0.595              1.979              4.957
 Vibration     4          0.596              1.975              4.580
 Vibration     5          0.596              1.975              4.546
 Vibration     6          0.597              1.972              4.370
 Vibration     7          0.598              1.968              4.146
 Vibration     8          0.599              1.967              4.086
 Vibration     9          0.599              1.965              3.990
 Vibration    10          0.600              1.961              3.813
 Vibration    11          0.601              1.958              3.709
 Vibration    12          0.602              1.954              3.586
 Vibration    13          0.603              1.951              3.517
 Vibration    14          0.604              1.948              3.439
 Vibration    15          0.605              1.947              3.395
 Vibration    16          0.607              1.941              3.256
 Vibration    17          0.607              1.937              3.192
 Vibration    18          0.610              1.930              3.063
 Vibration    19          0.611              1.926              2.981
 Vibration    20          0.612              1.922              2.931
 Vibration    21          0.616              1.908              2.738
 Vibration    22          0.617              1.907              2.723
 Vibration    23          0.617              1.906              2.714
 Vibration    24          0.619              1.900              2.646
 Vibration    25          0.622              1.890              2.534
 Vibration    26          0.623              1.886              2.492
 Vibration    27          0.627              1.875              2.400
 Vibration    28          0.628              1.872              2.368
 Vibration    29          0.630              1.865              2.311
 Vibration    30          0.631              1.861              2.283
 Vibration    31          0.634              1.852              2.215
 Vibration    32          0.636              1.846              2.177
 Vibration    33          0.640              1.833              2.087
 Vibration    34          0.643              1.823              2.031
 Vibration    35          0.645              1.816              1.988
 Vibration    36          0.653              1.791              1.858
 Vibration    37          0.658              1.777              1.794
 Vibration    38          0.660              1.771              1.765
 Vibration    39          0.664              1.757              1.708
 Vibration    40          0.668              1.747              1.667
 Vibration    41          0.671              1.737              1.627
 Vibration    42          0.675              1.727              1.590
 Vibration    43          0.677              1.719              1.561
 Vibration    44          0.682              1.706              1.517
 Vibration    45          0.683              1.701              1.502
 Vibration    46          0.684              1.699              1.494
 Vibration    47          0.694              1.670              1.406
 Vibration    48          0.697              1.660              1.377
 Vibration    49          0.705              1.639              1.320
 Vibration    50          0.713              1.614              1.256
 Vibration    51          0.719              1.599              1.220
 Vibration    52          0.724              1.583              1.184
 Vibration    53          0.743              1.530              1.073
 Vibration    54          0.755              1.499              1.013
 Vibration    55          0.760              1.486              0.990
 Vibration    56          0.768              1.464              0.952
 Vibration    57          0.772              1.455              0.937
 Vibration    58          0.776              1.445              0.920
 Vibration    59          0.779              1.437              0.909
 Vibration    60          0.788              1.414              0.872
 Vibration    61          0.792              1.404              0.857
 Vibration    62          0.797              1.390              0.837
 Vibration    63          0.802              1.377              0.819
 Vibration    64          0.803              1.375              0.816
 Vibration    65          0.810              1.359              0.793
 Vibration    66          0.815              1.347              0.777
 Vibration    67          0.817              1.341              0.769
 Vibration    68          0.826              1.320              0.742
 Vibration    69          0.918              1.114              0.520
 Vibration    70          0.924              1.100              0.508
 Vibration    71          0.929              1.091              0.500

                           ! Non-Optimized Parameters !

 1\1\GINC-NODE10-IB\Freq\RB3LYP\Gen\C1Mo8O1S16\CHESAGAR\10-Dec-2022\0\\
 #N Geom=AllCheck Guess=TCheck SCRF=Check GenChk RB3LYP/ChkBas Freq\\Ti
 tle Card Required\\0,1\Mo,0.3298418499,2.3332939537,12.0973595375\S,1.
 2439850486,4.1420964342,11.0429173352\S,-1.5178147568,3.1286674575,13.
 1193278902\S,-0.6905285062,0.8529700983,10.494529529\S,1.9201503874,0.
 2705190349,12.2295766026\Mo,-2.2683173371,2.6094282752,10.8440367909\S
 ,-3.2997631145,1.4710870999,8.8689769745\S,-1.7630007609,4.8574669151,
 10.0675488158\Mo,-0.062142978,2.9519197298,9.4597120149\S,-0.598342429

 Normal termination of Gaussian 16 at Sat Dec 10 09:15:22 2022.
