 Gaussian 16, Revision C.01,
 Gaussian 16:  ES64L-G16RevC.01  3-Jul-2019

 ---------------------------------------
 # opt freq b3lyp/gen nosymm pseudo=read
 ---------------------------------------

 -------------------
 Title Card Required
 -------------------
 Symbolic Z-matrix:
 Charge =  0 Multiplicity = 1

 SCF Done:  E(RB3LYP) =  -6912.14834628     A.U. after   37 cycles
 SCF Done:  E(RB3LYP) =  -6912.15119125     A.U. after   23 cycles
 SCF Done:  E(RB3LYP) =  -6912.15351015     A.U. after   24 cycles
 SCF Done:  E(RB3LYP) =  -6912.15388275     A.U. after   21 cycles
 SCF Done:  E(RB3LYP) =  -6912.15440502     A.U. after   22 cycles
 SCF Done:  E(RB3LYP) =  -6912.15462162     A.U. after   21 cycles
 SCF Done:  E(RB3LYP) =  -6912.15496257     A.U. after   23 cycles
 SCF Done:  E(RB3LYP) =  -6912.15514068     A.U. after   22 cycles
 SCF Done:  E(RB3LYP) =  -6912.15544859     A.U. after   23 cycles
 SCF Done:  E(RB3LYP) =  -6912.15641594     A.U. after   25 cycles
 SCF Done:  E(RB3LYP) =  -6912.18534620     A.U. after   22 cycles
 SCF Done:  E(RB3LYP) =  -6912.18544904     A.U. after   21 cycles
 SCF Done:  E(RB3LYP) =  -6912.18557839     A.U. after   22 cycles
 SCF Done:  E(RB3LYP) =  -6912.18564957     A.U. after   20 cycles
 SCF Done:  E(RB3LYP) =  -6912.18567278     A.U. after   21 cycles
 SCF Done:  E(RB3LYP) =  -6912.18568126     A.U. after   20 cycles
 SCF Done:  E(RB3LYP) =  -6912.18568535     A.U. after   18 cycles
 SCF Done:  E(RB3LYP) =  -6912.18568695     A.U. after   15 cycles
 SCF Done:  E(RB3LYP) =  -6912.18568832     A.U. after   18 cycles
 Optimization completed.
    -- Stationary point found.
 Normal termination of Gaussian 16 at Sat Dec 10 09:43:39 2022.

 ------------------------------------------------------------------
 #N Geom=AllCheck Guess=TCheck SCRF=Check GenChk RB3LYP/ChkBas Freq
 ------------------------------------------------------------------

 Structure from the checkpoint file:  "/home/chesagar/scratch/Gau-81654.chk"
 -------------------
 Title Card Required
 -------------------
 Charge =  0 Multiplicity = 1

                          Input orientation:
 ---------------------------------------------------------------------
 Center     Atomic      Atomic             Coordinates (Angstroms)
 Number     Number       Type             X           Y           Z
 ---------------------------------------------------------------------
      1         42           0        0.359181    2.544629   11.868666
      2         16           0        1.324226    4.326168   10.388019
      3         16           0       -1.464323    2.966213   13.092140
      4         16           0       -0.661071    0.829492   10.456537
      5         16           0        1.638830    0.544807   12.533782
      6         42           0       -2.287161    2.564843   10.757058
      7         16           0       -3.152402    1.469330    8.641177
      8         16           0       -1.923443    4.918571   10.430356
      9         42           0        0.473003    2.492336    9.183315
     10         16           0       -0.542110    3.350276    7.106666
     11         16           0        2.410785    1.630990    8.355010
     12         42           0        2.980469    0.907315   10.559735
     13         42           0       -2.547544    3.848528    8.434349
     14         16           0        4.545537    2.431010   11.233166
     15         16           0        3.913308   -0.975445   10.319519
     16         16           0       -4.861622    4.574620    8.562169
     17         16           0       -1.888846    6.259988    7.676863
     18         42           0       -4.969869    2.530599    9.548375
     19         16           0       -6.816353    1.535877    9.230129
     20         16           0       -4.480354    2.817076   11.751921
     21         42           0        3.255289    2.125318   13.166623
     22         16           0        4.457469    1.380376   14.744904
     23         16           0        1.908449    3.826850   13.603998
     24         42           0       -0.210242    5.092535    8.696603
 ---------------------------------------------------------------------

 SCF Done:  E(RB3LYP) =  -6912.18568832     A.U. after    1 cycles

 Alpha  occ. eigenvalues --  -88.93474 -88.93368 -88.92791 -88.92049 -88.91869
 Alpha  occ. eigenvalues --  -88.91265 -88.90892 -88.90812 -88.90275 -88.89693
 Alpha  occ. eigenvalues --  -88.89374 -88.88676 -88.88484 -88.88365 -88.88284
 Alpha  occ. eigenvalues --  -88.87298  -8.01054  -8.00844  -8.00309  -7.99593
 Alpha  occ. eigenvalues --   -7.99412  -7.98811  -7.98582  -7.98530  -7.97921
 Alpha  occ. eigenvalues --   -7.97552  -7.97146  -7.96425  -7.96255  -7.96172
 Alpha  occ. eigenvalues --   -7.95987  -7.95202  -5.97090  -5.97031  -5.96919
 Alpha  occ. eigenvalues --   -5.96898  -5.96845  -5.96677  -5.96386  -5.96227
 Alpha  occ. eigenvalues --   -5.96206  -5.95636  -5.95560  -5.95467  -5.95457
 Alpha  occ. eigenvalues --   -5.95379  -5.95298  -5.94852  -5.94795  -5.94677
 Alpha  occ. eigenvalues --   -5.94634  -5.94585  -5.94525  -5.94459  -5.94437
 Alpha  occ. eigenvalues --   -5.94392  -5.93956  -5.93857  -5.93813  -5.93544
 Alpha  occ. eigenvalues --   -5.93508  -5.93421  -5.93168  -5.93119  -5.92994
 Alpha  occ. eigenvalues --   -5.92490  -5.92381  -5.92341  -5.92247  -5.92201
 Alpha  occ. eigenvalues --   -5.92199  -5.92164  -5.92080  -5.92071  -5.92043
 Alpha  occ. eigenvalues --   -5.91900  -5.91776  -5.91218  -5.91153  -5.91044
 Alpha  occ. eigenvalues --   -2.58659  -2.56726  -2.56533  -2.56373  -2.55840
 Alpha  occ. eigenvalues --   -2.55588  -2.55564  -2.55391  -1.61530  -1.61036
 Alpha  occ. eigenvalues --   -1.60575  -1.60383  -1.59907  -1.59723  -1.59619
 Alpha  occ. eigenvalues --   -1.59225  -1.58777  -1.58695  -1.58593  -1.58406
 Alpha  occ. eigenvalues --   -1.58366  -1.58279  -1.58167  -1.57926  -1.57841
 Alpha  occ. eigenvalues --   -1.57498  -1.57213  -1.57083  -1.56991  -1.56902
 Alpha  occ. eigenvalues --   -1.56852  -1.56594  -0.77800  -0.76269  -0.76023
 Alpha  occ. eigenvalues --   -0.74702  -0.74486  -0.74228  -0.73534  -0.72827
 Alpha  occ. eigenvalues --   -0.72140  -0.72002  -0.71408  -0.70785  -0.70529
 Alpha  occ. eigenvalues --   -0.70069  -0.69447  -0.68541  -0.45030  -0.44302
 Alpha  occ. eigenvalues --   -0.43812  -0.43557  -0.43473  -0.42680  -0.42294
 Alpha  occ. eigenvalues --   -0.41763  -0.41241  -0.41132  -0.40764  -0.40203
 Alpha  occ. eigenvalues --   -0.39971  -0.39555  -0.39180  -0.39038  -0.38630
 Alpha  occ. eigenvalues --   -0.38127  -0.37844  -0.37818  -0.37399  -0.37234
 Alpha  occ. eigenvalues --   -0.36967  -0.36880  -0.36566  -0.36327  -0.36093
 Alpha  occ. eigenvalues --   -0.35496  -0.35428  -0.34927  -0.34802  -0.34444
 Alpha  occ. eigenvalues --   -0.34077  -0.33870  -0.33307  -0.33272  -0.32598
 Alpha  occ. eigenvalues --   -0.32314  -0.32160  -0.32010  -0.31040  -0.30769
 Alpha  occ. eigenvalues --   -0.30644  -0.30253  -0.29747  -0.29457  -0.28858
 Alpha  occ. eigenvalues --   -0.28606  -0.28033  -0.27573  -0.27365  -0.26994
 Alpha  occ. eigenvalues --   -0.26732  -0.25517  -0.24728  -0.22909
 Alpha virt. eigenvalues --   -0.18692  -0.17916  -0.17003  -0.16676  -0.16111
 Alpha virt. eigenvalues --   -0.15421  -0.14865  -0.14435  -0.14020  -0.13905
 Alpha virt. eigenvalues --   -0.13726  -0.13417  -0.13158  -0.12618  -0.12392

 Mulliken charges:
               1
     1  Mo  -0.262356
     2  S    0.160522
     3  S    0.058243
     4  S    0.163639
     5  S    0.107391
     6  Mo  -0.397487
     7  S    0.145111
     8  S    0.399174
     9  Mo  -0.083422
    10  S    0.120350
    11  S   -0.068161
    12  Mo   0.103912
    13  Mo  -0.315837
    14  S    0.023038
    15  S   -0.166093
    16  S    0.030127
    17  S    0.047060
    18  Mo   0.253565
    19  S   -0.193771
    20  S    0.040626
    21  Mo   0.239171
    22  S   -0.224472
    23  S   -0.070941
    24  Mo  -0.109392
 Sum of Mulliken charges =  -0.00000

 Dipole moment (field-independent basis, Debye):
    X=             -2.1928    Y=              1.2038    Z=             -2.5437  Tot=              3.5677
 Quadrupole moment (field-independent basis, Debye-Ang):
   XX=           -409.1373   YY=           -384.1404   ZZ=           -453.4894
   XY=              6.2803   XZ=            -29.4788   YZ=              5.2420

  Exact polarizability:     990.406    -119.559     536.533     186.047     -71.760     611.137
 Approx polarizability:    2782.460    -388.015    2070.759     425.100    -255.473    2200.836

                      1                      2                      3
                      A                      A                      A
 Frequencies --     26.1991                36.5002                41.5138
 Red. masses --     43.3222                42.4778                38.9812
 Frc consts  --      0.0175                 0.0333                 0.0396
 IR Inten    --      0.6474                 0.7263                 0.4003

                      4                      5                      6
                      A                      A                      A
 Frequencies --     60.3529                64.8706                72.2882
 Red. masses --     39.7760                47.7318                37.7967
 Frc consts  --      0.0854                 0.1183                 0.1164
 IR Inten    --      1.7183                 0.8876                 0.4430

                      7                      8                      9
                      A                      A                      A
 Frequencies --     76.0612                81.8722                83.2380
 Red. masses --     35.6951                36.6820                44.1904
 Frc consts  --      0.1217                 0.1449                 0.1804
 IR Inten    --      0.4125                 0.4267                 1.2598

                     10                     11                     12
                      A                      A                      A
 Frequencies --     92.9922                94.4437                97.8717
 Red. masses --     48.6775                36.5310                40.2581
 Frc consts  --      0.2480                 0.1920                 0.2272
 IR Inten    --      1.8001                 0.1002                 3.9194

                     13                     14                     15
                      A                      A                      A
 Frequencies --    105.2690               118.7045               124.2751
 Red. masses --     48.5976                38.4587                40.2838
 Frc consts  --      0.3173                 0.3193                 0.3666
 IR Inten    --      1.2128                 0.3505                 1.0054

                     16                     17                     18
                      A                      A                      A
 Frequencies --    130.4697               134.4118               136.9626
 Red. masses --     42.4740                43.8306                47.6560
 Frc consts  --      0.4260                 0.4666                 0.5267
 IR Inten    --      0.3659                 1.5881                 1.0989

                     19                     20                     21
                      A                      A                      A
 Frequencies --    141.0604               146.2474               148.8202
 Red. masses --     41.5789                43.4738                40.9341
 Frc consts  --      0.4875                 0.5478                 0.5341
 IR Inten    --      3.0752                 0.2260                 2.2518

                     22                     23                     24
                      A                      A                      A
 Frequencies --    154.6544               161.3748               168.6183
 Red. masses --     40.0860                43.4826                43.8912
 Frc consts  --      0.5649                 0.6672                 0.7353
 IR Inten    --      0.3683                 0.1867                 1.5849

                     25                     26                     27
                      A                      A                      A
 Frequencies --    171.6104               173.9317               181.8915
 Red. masses --     41.6719                41.1179                46.4256
 Frc consts  --      0.7231                 0.7329                 0.9050
 IR Inten    --      0.6408                 3.4133                 1.3007

                     28                     29                     30
                      A                      A                      A
 Frequencies --    183.8826               197.0064               200.1477
 Red. masses --     45.2619                51.8102                51.1501
 Frc consts  --      0.9017                 1.1847                 1.2073
 IR Inten    --      1.8452                 0.1286                 4.7176

                     31                     32                     33
                      A                      A                      A
 Frequencies --    207.0427               211.5460               215.8551
 Red. masses --     41.8048                46.2173                54.4534
 Frc consts  --      1.0558                 1.2186                 1.4949
 IR Inten    --      9.7929                 4.8158                 5.3825

                     34                     35                     36
                      A                      A                      A
 Frequencies --    231.4208               241.1491               254.0857
 Red. masses --     38.6209                39.8511                37.7243
 Frc consts  --      1.2186                 1.3654                 1.4349
 IR Inten    --      5.0365                 1.8187                 3.3262

                     37                     38                     39
                      A                      A                      A
 Frequencies --    258.9707               268.2930               278.4874
 Red. masses --     40.2376                36.1039                38.5264
 Frc consts  --      1.5900                 1.5312                 1.7604
 IR Inten    --      1.8329                 1.4666                 2.1281

                     40                     41                     42
                      A                      A                      A
 Frequencies --    286.4359               288.8306               293.1827
 Red. masses --     40.4251                37.4405                37.7081
 Frc consts  --      1.9541                 1.8403                 1.9097
 IR Inten    --      0.1571                 0.7529                 3.1521

                     43                     44                     45
                      A                      A                      A
 Frequencies --    295.3979               304.0560               306.6196
 Red. masses --     42.7474                38.2455                37.1925
 Frc consts  --      2.1977                 2.0832                 2.0602
 IR Inten    --      5.6225                 3.5839                 1.0655

                     46                     47                     48
                      A                      A                      A
 Frequencies --    314.9890               331.1549               335.3347
 Red. masses --     38.9216                39.3051                40.9926
 Frc consts  --      2.2753                 2.5396                 2.7159
 IR Inten    --      0.7172                 1.0791                 4.8678

                     49                     50                     51
                      A                      A                      A
 Frequencies --    348.6923               360.8889               384.5046
 Red. masses --     41.0025                37.8888                37.0074
 Frc consts  --      2.9373                 2.9074                 3.2236
 IR Inten    --      6.1603                10.2467                 4.6681

                     52                     53                     54
                      A                      A                      A
 Frequencies --    392.3028               400.1372               404.4051
 Red. masses --     37.3638                38.3657                37.0152
 Frc consts  --      3.3880                 3.6192                 3.5667
 IR Inten    --      3.4258                 2.0792                 9.2093

                     55                     56                     57
                      A                      A                      A
 Frequencies --    417.6664               420.5637               425.4996
 Red. masses --     38.2965                38.8809                34.5031
 Frc consts  --      3.9361                 4.0518                 3.6805
 IR Inten    --      9.2849                 4.7221                25.1190

                     58                     59                     60
                      A                      A                      A
 Frequencies --    435.5927               438.4619               442.2844
 Red. masses --     39.0207                39.4113                38.0756
 Frc consts  --      4.3622                 4.4641                 4.3883
 IR Inten    --     28.6845                 2.7543                12.0909

                     61                     62                     63
                      A                      A                      A
 Frequencies --    445.2295               466.2946               470.1982
 Red. masses --     39.1843                39.5922                39.2314
 Frc consts  --      4.5765                 5.0720                 5.1103
 IR Inten    --     10.3349                 1.7028                19.5273

                     64                     65                     66
                      A                      A                      A
 Frequencies --    554.5303               561.5328               565.2506
 Red. masses --     38.9064                39.7970                40.0812
 Frc consts  --      7.0489                 7.3935                 7.5452
 IR Inten    --    104.1935               236.8368               110.6467

 - Thermochemistry -
 -------------------
 Temperature   298.150 Kelvin.  Pressure   1.00000 Atm.
 Atom     1 has atomic number 42 and mass  97.90550

 Molecular mass:  1294.79715 amu.
 Principal axes and moments of inertia in atomic units:
                           1         2         3
     Eigenvalues --  ******************************
           X            0.90227  -0.43100   0.01198
           Y           -0.21997  -0.43625   0.87252
           Z            0.37083   0.78989   0.48843
 This molecule is an asymmetric top.
 Rotational symmetry number  1.
 Warning -- assumption of classical behavior for rotation
           may cause significant error
 Rotational temperatures (Kelvin)      0.00472     0.00163     0.00151
 Rotational constants (GHZ):           0.09841     0.03389     0.03148
 Zero-point vibrational energy      98479.2 (Joules/Mol)
                                   23.53708 (Kcal/Mol)
 Warning -- explicit consideration of  66 degrees of freedom as
           vibrations may cause significant error
 Vibrational temperatures:     37.69    52.52    59.73    86.83    93.33
          (Kelvin)            104.01   109.44   117.80   119.76   133.80
                              135.88   140.82   151.46   170.79   178.80
                              187.72   193.39   197.06   202.95   210.42
                              214.12   222.51   232.18   242.60   246.91
                              250.25   261.70   264.57   283.45   287.97
                              297.89   304.37   310.57   332.96   346.96
                              365.57   372.60   386.01   400.68   412.12
                              415.56   421.82   425.01   437.47   441.16
                              453.20   476.46   482.47   501.69   519.24
                              553.22   564.44   575.71   581.85   600.93
                              605.10   612.20   626.72   630.85   636.35
                              640.59   670.89   676.51   797.85   807.92
                              813.27

 Zero-point correction=                           0.037509 (Hartree/Particle)
 Thermal correction to Energy=                    0.074557
 Thermal correction to Enthalpy=                  0.075501
 Thermal correction to Gibbs Free Energy=        -0.033842
 Sum of electronic and zero-point Energies=          -6912.148180
 Sum of electronic and thermal Energies=             -6912.111132
 Sum of electronic and thermal Enthalpies=           -6912.110187
 Sum of electronic and thermal Free Energies=        -6912.219530

                     E (Thermal)             CV                S
                      KCal/Mol        Cal/Mol-Kelvin    Cal/Mol-Kelvin
 Total                   46.785            119.469            230.132
 Electronic               0.000              0.000              0.000
 Translational            0.889              2.981             47.352
 Rotational               0.889              2.981             39.257
 Vibrational             45.008            113.507            143.523
 Vibration     1          0.593              1.985              6.098
 Vibration     2          0.594              1.982              5.441
 Vibration     3          0.594              1.981              5.186
 Vibration     4          0.597              1.973              4.446
 Vibration     5          0.597              1.971              4.303
 Vibration     6          0.598              1.967              4.090
 Vibration     7          0.599              1.965              3.990
 Vibration     8          0.600              1.962              3.845
 Vibration     9          0.600              1.961              3.813
 Vibration    10          0.602              1.954              3.596
 Vibration    11          0.603              1.953              3.566
 Vibration    12          0.603              1.951              3.496
 Vibration    13          0.605              1.945              3.354
 Vibration    14          0.609              1.934              3.121
 Vibration    15          0.610              1.929              3.033
 Vibration    16          0.612              1.923              2.939
 Vibration    17          0.613              1.919              2.882
 Vibration    18          0.614              1.916              2.846
 Vibration    19          0.615              1.912              2.789
 Vibration    20          0.617              1.907              2.720
 Vibration    21          0.618              1.904              2.687
 Vibration    22          0.620              1.897              2.614
 Vibration    23          0.622              1.890              2.534
 Vibration    24          0.625              1.881              2.451
 Vibration    25          0.626              1.877              2.418
 Vibration    26          0.627              1.875              2.393
 Vibration    27          0.630              1.864              2.309
 Vibration    28          0.631              1.862              2.289
 Vibration    29          0.636              1.844              2.161
 Vibration    30          0.638              1.840              2.132
 Vibration    31          0.641              1.830              2.070
 Vibration    32          0.643              1.823              2.030
 Vibration    33          0.645              1.817              1.994
 Vibration    34          0.653              1.793              1.868
 Vibration    35          0.658              1.777              1.794
 Vibration    36          0.665              1.756              1.702
 Vibration    37          0.668              1.748              1.669
 Vibration    38          0.673              1.731              1.607
 Vibration    39          0.679              1.713              1.543
 Vibration    40          0.684              1.699              1.495
 Vibration    41          0.685              1.694              1.481
 Vibration    42          0.688              1.686              1.456
 Vibration    43          0.690              1.682              1.443
 Vibration    44          0.695              1.666              1.394
 Vibration    45          0.697              1.661              1.381
 Vibration    46          0.702              1.645              1.336
 Vibration    47          0.714              1.613              1.254
 Vibration    48          0.716              1.605              1.234
 Vibration    49          0.726              1.578              1.172
 Vibration    50          0.735              1.553              1.118
 Vibration    51          0.753              1.503              1.021
 Vibration    52          0.760              1.487              0.991
 Vibration    53          0.766              1.470              0.962
 Vibration    54          0.770              1.461              0.947
 Vibration    55          0.781              1.432              0.900
 Vibration    56          0.783              1.426              0.890
 Vibration    57          0.787              1.415              0.873
 Vibration    58          0.796              1.393              0.841
 Vibration    59          0.799              1.386              0.831
 Vibration    60          0.802              1.378              0.819
 Vibration    61          0.805              1.371              0.810
 Vibration    62          0.824              1.325              0.748
 Vibration    63          0.827              1.316              0.737
 Vibration    64          0.910              1.130              0.535
 Vibration    65          0.917              1.115              0.521
 Vibration    66          0.921              1.106              0.513

                           ! Non-Optimized Parameters !
 Normal termination of Gaussian 16 at Sat Dec 10 09:50:23 2022.
