 Gaussian 16, Revision C.01,
 Gaussian 16:  ES64L-G16RevC.01  3-Jul-2019

 ---------------------------------------
 # opt freq b3lyp/gen nosymm pseudo=read
 ---------------------------------------

 -------------------
 Title Card Required
 -------------------
 Symbolic Z-matrix:
 Charge =  0 Multiplicity = 1

 SCF Done:  E(RB3LYP) =  -7311.58999140     A.U. after   36 cycles
 SCF Done:  E(RB3LYP) =  -7311.59077635     A.U. after   20 cycles
 SCF Done:  E(RB3LYP) =  -7311.59111887     A.U. after   20 cycles
 SCF Done:  E(RB3LYP) =  -7311.59119364     A.U. after   18 cycles
 SCF Done:  E(RB3LYP) =  -7311.59130535     A.U. after   20 cycles
 SCF Done:  E(RB3LYP) =  -7311.59131946     A.U. after   17 cycles
 SCF Done:  E(RB3LYP) =  -7311.59132850     A.U. after   17 cycles
 SCF Done:  E(RB3LYP) =  -7311.59133239     A.U. after   16 cycles
 SCF Done:  E(RB3LYP) =  -7311.59133415     A.U. after   15 cycles
 SCF Done:  E(RB3LYP) =  -7311.59133484     A.U. after   15 cycles
 SCF Done:  E(RB3LYP) =  -7311.59133525     A.U. after   15 cycles
 SCF Done:  E(RB3LYP) =  -7311.59133541     A.U. after   13 cycles
 SCF Done:  E(RB3LYP) =  -7311.59133550     A.U. after   13 cycles
 Optimization completed.
    -- Stationary point found.
 Normal termination of Gaussian 16 at Mon Dec 12 10:48:47 2022.

 ------------------------------------------------------------------
 #N Geom=AllCheck Guess=TCheck SCRF=Check GenChk RB3LYP/ChkBas Freq
 ------------------------------------------------------------------

 Structure from the checkpoint file:  "/home/chesagar/scratch/Gau-141186.chk"
 -------------------
 Title Card Required
 -------------------
 Charge =  0 Multiplicity = 1

                          Input orientation:
 ---------------------------------------------------------------------
 Center     Atomic      Atomic             Coordinates (Angstroms)
 Number     Number       Type             X           Y           Z
 ---------------------------------------------------------------------
      1         42           0        0.383715    2.293032   12.101015
      2         16           0        1.367710    4.089270   11.059903
      3         16           0       -1.450544    3.136711   13.096312
      4         16           0       -0.682923    0.823446   10.523394
      5         16           0        1.965810    0.181329   12.162442
      6         42           0       -2.195435    2.634187   10.799993
      7         16           0       -3.233437    1.596028    8.767733
      8         16           0       -1.644380    4.949103   10.123580
      9         42           0        0.015746    2.959936    9.481693
     10         16           0       -0.525646    3.041916    7.094952
     11         16           0        2.129229    1.729983    8.679159
     12         42           0        3.392477    1.055502   10.452406
     13         42           0       -2.554921    3.888065    8.216726
     14         16           0        4.603725    2.711878   11.537039
     15         16           0        4.745641   -0.462362    9.904366
     16         16           0       -4.722855    4.834861    8.293234
     17         16           0       -1.833339    5.943588    6.973604
     18         42           0       -4.935531    2.946451    9.572986
     19         16           0       -6.807731    2.002202    9.233145
     20         16           0       -4.433377    3.353933   11.714276
     21         42           0        3.389107    1.697208   13.253053
     22         16           0        4.674887    0.731143   14.624389
     23         16           0        1.803295    2.979046   14.158381
     24         42           0       -0.078246    5.208931    8.134403
     25         16           0        2.243648    5.066803    7.033353
     26          1           0        3.056628    5.666502    7.932615
     27          1           0        2.519561    3.799236    7.480495
 ---------------------------------------------------------------------

 SCF Done:  E(RB3LYP) =  -7311.59133550     A.U. after    3 cycles

 Alpha  occ. eigenvalues --  -88.97092 -88.94152 -88.91637 -88.91084 -88.90931
 Alpha  occ. eigenvalues --  -88.90890 -88.90692 -88.90090 -88.89782 -88.89363
 Alpha  occ. eigenvalues --  -88.88907 -88.88056 -88.87947 -88.87857 -88.87706
 Alpha  occ. eigenvalues --  -88.87409 -88.87128  -8.04832  -8.01506  -7.99145
 Alpha  occ. eigenvalues --   -7.98582  -7.98565  -7.98361  -7.98089  -7.97836
 Alpha  occ. eigenvalues --   -7.97417  -7.97080  -7.96639  -7.96023  -7.95714
 Alpha  occ. eigenvalues --   -7.95551  -7.95478  -7.95285  -7.95065  -6.01103
 Alpha  occ. eigenvalues --   -6.00817  -6.00438  -5.97520  -5.97493  -5.97424
 Alpha  occ. eigenvalues --   -5.95160  -5.95147  -5.95022  -5.94615  -5.94586
 Alpha  occ. eigenvalues --   -5.94558  -5.94519  -5.94473  -5.94457  -5.94442
 Alpha  occ. eigenvalues --   -5.94308  -5.94237  -5.94212  -5.94038  -5.93939
 Alpha  occ. eigenvalues --   -5.93856  -5.93835  -5.93664  -5.93474  -5.93334
 Alpha  occ. eigenvalues --   -5.93308  -5.93131  -5.93015  -5.92943  -5.92705
 Alpha  occ. eigenvalues --   -5.92588  -5.92471  -5.92022  -5.91984  -5.91853
 Alpha  occ. eigenvalues --   -5.91760  -5.91659  -5.91633  -5.91568  -5.91545
 Alpha  occ. eigenvalues --   -5.91500  -5.91455  -5.91399  -5.91310  -5.91276
 Alpha  occ. eigenvalues --   -5.91220  -5.91141  -5.91047  -5.91033  -5.90917
 Alpha  occ. eigenvalues --   -2.56206  -2.56068  -2.55754  -2.55548  -2.55527
 Alpha  occ. eigenvalues --   -2.55165  -2.55096  -2.55052  -1.59861  -1.59471
 Alpha  occ. eigenvalues --   -1.59227  -1.59128  -1.58974  -1.58804  -1.58678
 Alpha  occ. eigenvalues --   -1.58487  -1.58391  -1.58163  -1.58088  -1.58001
 Alpha  occ. eigenvalues --   -1.57771  -1.57712  -1.57561  -1.57148  -1.57054
 Alpha  occ. eigenvalues --   -1.56966  -1.56748  -1.56716  -1.56567  -1.56419
 Alpha  occ. eigenvalues --   -1.56221  -1.55434  -0.84213  -0.77294  -0.75358
 Alpha  occ. eigenvalues --   -0.74587  -0.73759  -0.73203  -0.73006  -0.72056
 Alpha  occ. eigenvalues --   -0.71893  -0.71645  -0.70930  -0.70847  -0.70432
 Alpha  occ. eigenvalues --   -0.69781  -0.69305  -0.68669  -0.68421  -0.53663
 Alpha  occ. eigenvalues --   -0.47453  -0.44157  -0.43553  -0.43149  -0.42978
 Alpha  occ. eigenvalues --   -0.42581  -0.41560  -0.41061  -0.41004  -0.40444
 Alpha  occ. eigenvalues --   -0.39815  -0.39754  -0.39491  -0.39093  -0.38794
 Alpha  occ. eigenvalues --   -0.38232  -0.37986  -0.37938  -0.37767  -0.37591
 Alpha  occ. eigenvalues --   -0.37146  -0.36819  -0.36643  -0.36282  -0.36122
 Alpha  occ. eigenvalues --   -0.35817  -0.35620  -0.35475  -0.34951  -0.34750
 Alpha  occ. eigenvalues --   -0.34437  -0.34310  -0.34079  -0.33721  -0.33588
 Alpha  occ. eigenvalues --   -0.32900  -0.32733  -0.32490  -0.32134  -0.31744
 Alpha  occ. eigenvalues --   -0.31584  -0.30749  -0.30520  -0.30356  -0.29748
 Alpha  occ. eigenvalues --   -0.29439  -0.28908  -0.28391  -0.28221  -0.27511
 Alpha  occ. eigenvalues --   -0.27339  -0.26988  -0.26119  -0.25703  -0.25302
 Alpha  occ. eigenvalues --   -0.25102  -0.24776  -0.24034
 Alpha virt. eigenvalues --   -0.17329  -0.16601  -0.16324  -0.15869  -0.15451
 Alpha virt. eigenvalues --   -0.15029  -0.14565  -0.13934  -0.13340  -0.13056
 Alpha virt. eigenvalues --   -0.12720  -0.12544  -0.11968  -0.11817  -0.11622

 Mulliken charges:
               1
     1  Mo  -0.261375
     2  S    0.164194
     3  S    0.083940
     4  S    0.232460
     5  S    0.009432
     6  Mo  -0.417318
     7  S    0.153042
     8  S    0.362298
     9  Mo  -0.263099
    10  S    0.183453
    11  S   -0.167304
    12  Mo   0.232572
    13  Mo  -0.284301
    14  S   -0.040929
    15  S   -0.175407
    16  S   -0.012873
    17  S    0.046217
    18  Mo   0.227767
    19  S   -0.226761
    20  S   -0.022121
    21  Mo   0.244697
    22  S   -0.224028
    23  S   -0.064696
    24  Mo  -0.127546
    25  S    0.062248
    26  H    0.139682
    27  H    0.145755
 Sum of Mulliken charges =  -0.00000

 Dipole moment (field-independent basis, Debye):
    X=              2.2480    Y=              5.0663    Z=             -4.3736  Tot=              7.0604
 Quadrupole moment (field-independent basis, Debye-Ang):
   XX=           -434.3092   YY=           -367.1089   ZZ=           -504.3102
   XY=             24.7199   XZ=              5.1342   YZ=             29.6164

  Exact polarizability:    1009.798    -110.972     513.709     147.720    -103.180     657.099
 Approx polarizability:    2747.918    -138.776    1705.072     249.585    -266.710    2169.686

                      1                      2                      3
                      A                      A                      A
 Frequencies --     27.3484                33.2785                49.0256
 Red. masses --     35.3692                34.8151                24.5169
 Frc consts  --      0.0156                 0.0227                 0.0347
 IR Inten    --      0.6082                 1.0974                 0.8936

                      4                      5                      6
                      A                      A                      A
 Frequencies --     52.7372                61.0555                68.1158
 Red. masses --     13.9377                33.2632                29.0313
 Frc consts  --      0.0228                 0.0731                 0.0794
 IR Inten    --      2.2511                 0.8764                 0.9786

                      7                      8                      9
                      A                      A                      A
 Frequencies --     73.5604                75.5132                82.7826
 Red. masses --     28.0760                37.0436                28.0450
 Frc consts  --      0.0895                 0.1245                 0.1132
 IR Inten    --      1.1838                 0.0288                 1.0364

                     10                     11                     12
                      A                      A                      A
 Frequencies --     83.8642                92.1209                96.1940
 Red. masses --     36.0015                48.3909                37.7521
 Frc consts  --      0.1492                 0.2420                 0.2058
 IR Inten    --      1.0596                 0.5712                 0.9387

                     13                     14                     15
                      A                      A                      A
 Frequencies --     99.7544               105.6492               109.3552
 Red. masses --     33.0627                27.7220                31.9444
 Frc consts  --      0.1938                 0.1823                 0.2251
 IR Inten    --      0.6488                 1.4930                 0.1489

                     16                     17                     18
                      A                      A                      A
 Frequencies --    116.0727               120.7840               125.2886
 Red. masses --     40.3615                45.4900                36.9726
 Frc consts  --      0.3204                 0.3910                 0.3419
 IR Inten    --      0.9030                 6.9543                 1.6515

                     19                     20                     21
                      A                      A                      A
 Frequencies --    130.8991               134.8304               145.4766
 Red. masses --     33.4158                43.8289                37.3163
 Frc consts  --      0.3373                 0.4694                 0.4653
 IR Inten    --      2.4318                 0.1098                 0.4822

                     22                     23                     24
                      A                      A                      A
 Frequencies --    148.6784               151.7704               154.3441
 Red. masses --     39.6070                37.9836                43.7586
 Frc consts  --      0.5158                 0.5155                 0.6142
 IR Inten    --      0.9688                 2.3667                 0.3300

                     25                     26                     27
                      A                      A                      A
 Frequencies --    166.3572               170.7768               176.1912
 Red. masses --     46.7367                43.0776                38.9646
 Frc consts  --      0.7621                 0.7402                 0.7127
 IR Inten    --      2.6830                 0.5350                 0.3120

                     28                     29                     30
                      A                      A                      A
 Frequencies --    180.7025               184.1739               185.9196
 Red. masses --     42.0478                37.8897                46.4534
 Frc consts  --      0.8090                 0.7572                 0.9461
 IR Inten    --      0.2844                 0.4176                 1.7790

                     31                     32                     33
                      A                      A                      A
 Frequencies --    197.8351               203.0069               211.5138
 Red. masses --     39.6737                29.2537                27.7930
 Frc consts  --      0.9149                 0.7103                 0.7326
 IR Inten    --      0.2019                 1.3057                 0.1019

                     34                     35                     36
                      A                      A                      A
 Frequencies --    213.8770               216.4673               228.1752
 Red. masses --     36.7196                38.8876                39.9748
 Frc consts  --      0.9896                 1.0736                 1.2262
 IR Inten    --      1.1978                 0.6177                 1.9829

                     37                     38                     39
                      A                      A                      A
 Frequencies --    235.0717               243.4136               247.5924
 Red. masses --     35.4764                20.1699                20.5727
 Frc consts  --      1.1550                 0.7041                 0.7430
 IR Inten    --      2.2031                11.6943                 3.1735

                     40                     41                     42
                      A                      A                      A
 Frequencies --    258.8905               262.0203               263.2323
 Red. masses --      2.4479                26.9331                 1.9805
 Frc consts  --      0.0967                 1.0894                 0.0809
 IR Inten    --      5.2022                 2.9346                 5.1528

                     43                     44                     45
                      A                      A                      A
 Frequencies --    269.7355               273.5584               279.7230
 Red. masses --     41.1985                37.5002                28.3628
 Frc consts  --      1.7661                 1.6534                 1.3075
 IR Inten    --     23.6113                 1.1447                 5.9035

                     46                     47                     48
                      A                      A                      A
 Frequencies --    285.1073               294.7643               295.1153
 Red. masses --     31.0618                28.0001                38.5326
 Frc consts  --      1.4876                 1.4334                 1.9773
 IR Inten    --      2.7427                 2.4347                 1.1276

                     49                     50                     51
                      A                      A                      A
 Frequencies --    301.1074               309.9287               313.6192
 Red. masses --     35.3072                37.4624                40.2775
 Frc consts  --      1.8861                 2.1202                 2.3341
 IR Inten    --      3.8766                 3.1519                 0.7840

                     52                     53                     54
                      A                      A                      A
 Frequencies --    329.0504               335.9784               342.1359
 Red. masses --     44.3311                44.1215                40.1125
 Frc consts  --      2.8280                 2.9344                 2.7665
 IR Inten    --      2.0348                 1.8871                 7.0740

                     55                     56                     57
                      A                      A                      A
 Frequencies --    386.8224               390.9156               402.3286
 Red. masses --     33.3233                32.5136                33.4365
 Frc consts  --      2.9378                 2.9274                 3.1888
 IR Inten    --     29.0665                22.4826                 4.4052

                     58                     59                     60
                      A                      A                      A
 Frequencies --    406.9548               413.7967               424.1589
 Red. masses --     34.6769                35.1711                34.2466
 Frc consts  --      3.3836                 3.5482                 3.6302
 IR Inten    --     12.8424                 4.7906                 6.3454

                     61                     62                     63
                      A                      A                      A
 Frequencies --    430.4709               437.1752               440.9852
 Red. masses --     36.6734                35.8355                36.1134
 Frc consts  --      4.0040                 4.0353                 4.1378
 IR Inten    --      1.1361                 9.0954                 8.3732

                     64                     65                     66
                      A                      A                      A
 Frequencies --    443.9802               453.2555               456.8818
 Red. masses --     30.9968                34.5437                38.8135
 Frc consts  --      3.5999                 4.1812                 4.7735
 IR Inten    --     10.9156                35.8220                23.7059

                     67                     68                     69
                      A                      A                      A
 Frequencies --    467.5769               532.2849               558.9387
 Red. masses --     39.4341                 1.1071                39.6283
 Frc consts  --      5.0796                 0.1848                 7.2943
 IR Inten    --     13.6658                12.2438               206.4051

                     70                     71                     72
                      A                      A                      A
 Frequencies --    567.7009               571.9929               622.6413
 Red. masses --     39.4315                38.0002                 1.0412
 Frc consts  --      7.4874                 7.3252                 0.2378
 IR Inten    --     74.2659               161.8227                23.6333

                     73                     74                     75
                      A                      A                      A
 Frequencies --   1212.3152              2386.7693              2660.4585
 Red. masses --      1.0368                 1.0403                 1.0376
 Frc consts  --      0.8978                 3.4917                 4.3269
 IR Inten    --      7.6206               319.8966                 2.3499

 - Thermochemistry -
 -------------------
 Temperature   298.150 Kelvin.  Pressure   1.00000 Atm.
 Atom     1 has atomic number 42 and mass  97.90550

 Molecular mass:  1328.78487 amu.
 Principal axes and moments of inertia in atomic units:
                           1         2         3
     Eigenvalues --  ******************************
           X            0.88171  -0.46766   0.06233
           Y           -0.26888  -0.38953   0.88089
           Z            0.38768   0.79345   0.46920
 This molecule is an asymmetric top.
 Rotational symmetry number  1.
 Warning -- assumption of classical behavior for rotation
           may cause significant error
 Rotational temperatures (Kelvin)      0.00415     0.00155     0.00133
 Rotational constants (GHZ):           0.08650     0.03234     0.02766
 Zero-point vibrational energy     146434.5 (Joules/Mol)
                                   34.99870 (Kcal/Mol)
 Warning -- explicit consideration of  71 degrees of freedom as
           vibrations may cause significant error
 Vibrational temperatures:     39.35    47.88    70.54    75.88    87.85
          (Kelvin)             98.00   105.84   108.65   119.11   120.66
                              132.54   138.40   143.52   152.01   157.34
                              167.00   173.78   180.26   188.33   193.99
                              209.31   213.91   218.36   222.07   239.35
                              245.71   253.50   259.99   264.99   267.50
                              284.64   292.08   304.32   307.72   311.45
                              328.29   338.22   350.22   356.23   372.49
                              376.99   378.73   388.09   393.59   402.46
                              410.21   424.10   424.61   433.23   445.92
                              451.23   473.43   483.40   492.26   556.55
                              562.44   578.86   585.52   595.36   610.27
                              619.35   629.00   634.48   638.79   652.13
                              657.35   672.74   765.84   804.19   816.79
                              822.97   895.84  1744.25  3434.03  3827.81

 Zero-point correction=                           0.055774 (Hartree/Particle)
 Thermal correction to Energy=                    0.095774
 Thermal correction to Enthalpy=                  0.096718
 Thermal correction to Gibbs Free Energy=        -0.018723
 Sum of electronic and zero-point Energies=          -7311.535562
 Sum of electronic and thermal Energies=             -7311.495561
 Sum of electronic and thermal Enthalpies=           -7311.494617
 Sum of electronic and thermal Free Energies=        -7311.610058

                     E (Thermal)             CV                S
                      KCal/Mol        Cal/Mol-Kelvin    Cal/Mol-Kelvin
 Total                   60.099            129.410            242.966
 Electronic               0.000              0.000              0.000
 Translational            0.889              2.981             47.429
 Rotational               0.889              2.981             39.560
 Vibrational             58.322            123.448            155.977
 Vibration     1          0.593              1.984              6.013
 Vibration     2          0.594              1.983              5.624
 Vibration     3          0.595              1.978              4.856
 Vibration     4          0.596              1.977              4.712
 Vibration     5          0.597              1.973              4.423
 Vibration     6          0.598              1.969              4.207
 Vibration     7          0.599              1.966              4.056
 Vibration     8          0.599              1.965              4.004
 Vibration     9          0.600              1.961              3.824
 Vibration    10          0.601              1.960              3.798
 Vibration    11          0.602              1.955              3.615
 Vibration    12          0.603              1.952              3.530
 Vibration    13          0.604              1.949              3.459
 Vibration    14          0.605              1.945              3.347
 Vibration    15          0.606              1.942              3.280
 Vibration    16          0.608              1.936              3.165
 Vibration    17          0.609              1.932              3.088
 Vibration    18          0.610              1.928              3.017
 Vibration    19          0.612              1.922              2.933
 Vibration    20          0.613              1.919              2.876
 Vibration    21          0.617              1.908              2.731
 Vibration    22          0.618              1.904              2.689
 Vibration    23          0.619              1.901              2.650
 Vibration    24          0.620              1.898              2.618
 Vibration    25          0.624              1.884              2.476
 Vibration    26          0.626              1.878              2.427
 Vibration    27          0.628              1.872              2.368
 Vibration    28          0.630              1.866              2.321
 Vibration    29          0.631              1.861              2.286
 Vibration    30          0.632              1.859              2.268
 Vibration    31          0.637              1.843              2.153
 Vibration    32          0.639              1.836              2.106
 Vibration    33          0.643              1.823              2.031
 Vibration    34          0.644              1.820              2.010
 Vibration    35          0.645              1.816              1.988
 Vibration    36          0.651              1.798              1.893
 Vibration    37          0.655              1.787              1.840
 Vibration    38          0.659              1.774              1.778
 Vibration    39          0.661              1.767              1.748
 Vibration    40          0.668              1.748              1.669
 Vibration    41          0.669              1.742              1.648
 Vibration    42          0.670              1.740              1.640
 Vibration    43          0.674              1.729              1.598
 Vibration    44          0.676              1.722              1.574
 Vibration    45          0.680              1.711              1.535
 Vibration    46          0.683              1.701              1.503
 Vibration    47          0.689              1.683              1.446
 Vibration    48          0.689              1.683              1.444
 Vibration    49          0.693              1.672              1.411
 Vibration    50          0.699              1.655              1.363
 Vibration    51          0.701              1.648              1.343
 Vibration    52          0.712              1.617              1.265
 Vibration    53          0.717              1.604              1.231
 Vibration    54          0.721              1.591              1.202
 Vibration    55          0.755              1.498              1.012
 Vibration    56          0.759              1.490              0.997
 Vibration    57          0.768              1.465              0.954
 Vibration    58          0.772              1.455              0.937
 Vibration    59          0.777              1.440              0.913
 Vibration    60          0.786              1.418              0.878
 Vibration    61          0.792              1.404              0.857
 Vibration    62          0.797              1.389              0.836
 Vibration    63          0.801              1.381              0.824
 Vibration    64          0.803              1.374              0.814
 Vibration    65          0.812              1.354              0.786
 Vibration    66          0.815              1.346              0.775
 Vibration    67          0.825              1.322              0.744
 Vibration    68          0.887              1.179              0.582
 Vibration    69          0.915              1.120              0.526
 Vibration    70          0.924              1.101              0.509
 Vibration    71          0.928              1.092              0.500

                           ! Non-Optimized Parameters !
 Normal termination of Gaussian 16 at Mon Dec 12 10:56:44 2022.
