 Gaussian 16, Revision C.01,
 Gaussian 16:  ES64L-G16RevC.01  3-Jul-2019

 ---------------------------------------
 # opt freq b3lyp/gen nosymm pseudo=read
 ---------------------------------------

 -------------------
 Title Card Required
 -------------------
 Symbolic Z-matrix:
 Charge =  0 Multiplicity = 1

 SCF Done:  E(RB3LYP) =  -7710.98945253     A.U. after   32 cycles
 SCF Done:  E(RB3LYP) =  -7710.99946646     A.U. after   22 cycles
 SCF Done:  E(RB3LYP) =  -7711.00472918     A.U. after   21 cycles
 SCF Done:  E(RB3LYP) =  -7711.00791924     A.U. after   21 cycles
 SCF Done:  E(RB3LYP) =  -7711.00865411     A.U. after   20 cycles
 SCF Done:  E(RB3LYP) =  -7711.01002107     A.U. after   21 cycles
 SCF Done:  E(RB3LYP) =  -7711.01074310     A.U. after   21 cycles
 SCF Done:  E(RB3LYP) =  -7711.01104795     A.U. after   21 cycles
 SCF Done:  E(RB3LYP) =  -7711.01175311     A.U. after   19 cycles
 SCF Done:  E(RB3LYP) =  -7711.01260995     A.U. after   22 cycles
 SCF Done:  E(RB3LYP) =  -7711.01323557     A.U. after   16 cycles
 SCF Done:  E(RB3LYP) =  -7711.01324349     A.U. after   18 cycles
 SCF Done:  E(RB3LYP) =  -7711.01324416     A.U. after   14 cycles
 SCF Done:  E(RB3LYP) =  -7711.01324544     A.U. after   15 cycles
 SCF Done:  E(RB3LYP) =  -7711.01324571     A.U. after   13 cycles
 SCF Done:  E(RB3LYP) =  -7711.01324594     A.U. after   13 cycles
 SCF Done:  E(RB3LYP) =  -7711.01324611     A.U. after   13 cycles
 SCF Done:  E(RB3LYP) =  -7711.01324617     A.U. after   11 cycles
 SCF Done:  E(RB3LYP) =  -7711.01324621     A.U. after   10 cycles
 Optimization completed.
    -- Stationary point found.
 Normal termination of Gaussian 16 at Sat Dec 10 09:45:38 2022.

 ------------------------------------------------------------------
 #N Geom=AllCheck Guess=TCheck SCRF=Check GenChk RB3LYP/ChkBas Freq
 ------------------------------------------------------------------

 Structure from the checkpoint file:  "/home/chesagar/scratch/Gau-1826.chk"
 -------------------
 Title Card Required
 -------------------
 Charge =  0 Multiplicity = 1

                          Input orientation:
 ---------------------------------------------------------------------
 Center     Atomic      Atomic             Coordinates (Angstroms)
 Number     Number       Type             X           Y           Z
 ---------------------------------------------------------------------
      1         42           0        0.378302    2.281669   12.108208
      2         16           0        1.367806    4.081370   11.096858
      3         16           0       -1.465698    3.104361   13.113776
      4         16           0       -0.666089    0.845288   10.488471
      5         16           0        1.963402    0.174717   12.150339
      6         42           0       -2.192918    2.639686   10.814051
      7         16           0       -3.218663    1.606800    8.767070
      8         16           0       -1.652206    4.952300   10.147301
      9         42           0        0.020732    2.987878    9.482034
     10         16           0       -0.502687    3.042360    7.110622
     11         16           0        2.157533    1.773614    8.697743
     12         42           0        3.407290    1.077678   10.470394
     13         42           0       -2.517577    3.891147    8.210173
     14         16           0        4.609930    2.713236   11.595771
     15         16           0        4.764939   -0.432666    9.908453
     16         16           0       -4.712368    4.822566    8.282583
     17         16           0       -1.850199    5.934032    6.944433
     18         42           0       -4.920943    2.952996    9.580584
     19         16           0       -6.791782    1.999802    9.253370
     20         16           0       -4.429277    3.361869   11.724280
     21         42           0        3.375165    1.672242   13.280952
     22         16           0        4.646788    0.682173   14.650141
     23         16           0        1.781442    2.941272   14.189970
     24         42           0       -0.085720    5.279064    8.152351
     25         16           0        2.186942    5.053659    6.970739
     26          1           0        3.069166    5.636244    7.813862
     27          1           0        2.469504    3.782573    7.400116
     28         16           0        0.684880    7.611903    9.177209
     29          1           0       -0.234406    7.782120   10.151532
     30          1           0        0.052299    8.429553    8.310139
 ---------------------------------------------------------------------

 SCF Done:  E(RB3LYP) =  -7711.01324621     A.U. after    3 cycles

 Alpha  occ. eigenvalues --  -88.97062 -88.96568 -88.93407 -88.91000 -88.90369
 Alpha  occ. eigenvalues --  -88.90322 -88.90191 -88.89646 -88.89409 -88.89058
 Alpha  occ. eigenvalues --  -88.88683 -88.88275 -88.87441 -88.87361 -88.87232
 Alpha  occ. eigenvalues --  -88.87119 -88.86859 -88.86552  -8.04770  -8.04259
 Alpha  occ. eigenvalues --   -8.00745  -7.98507  -7.98002  -7.97791  -7.97703
 Alpha  occ. eigenvalues --   -7.97357  -7.96817  -7.96698  -7.96398  -7.96006
 Alpha  occ. eigenvalues --   -7.95409  -7.95129  -7.94926  -7.94893  -7.94737
 Alpha  occ. eigenvalues --   -7.94490  -6.01080  -6.00796  -6.00533  -6.00307
 Alpha  occ. eigenvalues --   -6.00252  -5.99869  -5.96752  -5.96741  -5.96669
 Alpha  occ. eigenvalues --   -5.94521  -5.94509  -5.94383  -5.94024  -5.93958
 Alpha  occ. eigenvalues --   -5.93894  -5.93872  -5.93736  -5.93735  -5.93677
 Alpha  occ. eigenvalues --   -5.93671  -5.93596  -5.93372  -5.93359  -5.93198
 Alpha  occ. eigenvalues --   -5.92899  -5.92790  -5.92756  -5.92688  -5.92615
 Alpha  occ. eigenvalues --   -5.92586  -5.92456  -5.92336  -5.92254  -5.92076
 Alpha  occ. eigenvalues --   -5.91957  -5.91835  -5.91410  -5.91372  -5.91236
 Alpha  occ. eigenvalues --   -5.91175  -5.91076  -5.91006  -5.90982  -5.90962
 Alpha  occ. eigenvalues --   -5.90880  -5.90871  -5.90771  -5.90759  -5.90691
 Alpha  occ. eigenvalues --   -5.90670  -5.90600  -5.90472  -5.90459  -5.90341
 Alpha  occ. eigenvalues --   -2.55661  -2.55337  -2.55093  -2.54954  -2.54950
 Alpha  occ. eigenvalues --   -2.54541  -2.54485  -2.54338  -1.59108  -1.58752
 Alpha  occ. eigenvalues --   -1.58584  -1.58478  -1.58330  -1.58188  -1.58043
 Alpha  occ. eigenvalues --   -1.57835  -1.57818  -1.57586  -1.57524  -1.57348
 Alpha  occ. eigenvalues --   -1.57105  -1.56997  -1.56880  -1.56485  -1.56470
 Alpha  occ. eigenvalues --   -1.56289  -1.56181  -1.56049  -1.55996  -1.55688
 Alpha  occ. eigenvalues --   -1.55522  -1.54866  -0.84294  -0.83526  -0.76546
 Alpha  occ. eigenvalues --   -0.74752  -0.73970  -0.72916  -0.72589  -0.72292
 Alpha  occ. eigenvalues --   -0.71424  -0.71253  -0.70915  -0.70322  -0.70211
 Alpha  occ. eigenvalues --   -0.69805  -0.69173  -0.68710  -0.68135  -0.67863
 Alpha  occ. eigenvalues --   -0.53834  -0.53062  -0.47418  -0.46686  -0.43479
 Alpha  occ. eigenvalues --   -0.42906  -0.42482  -0.42337  -0.41946  -0.40741
 Alpha  occ. eigenvalues --   -0.40488  -0.40300  -0.39813  -0.39408  -0.39020
 Alpha  occ. eigenvalues --   -0.38963  -0.38827  -0.38192  -0.37890  -0.37446
 Alpha  occ. eigenvalues --   -0.37318  -0.37272  -0.37117  -0.36882  -0.36555
 Alpha  occ. eigenvalues --   -0.36102  -0.35755  -0.35616  -0.35500  -0.35225
 Alpha  occ. eigenvalues --   -0.35034  -0.34506  -0.34273  -0.34083  -0.33794
 Alpha  occ. eigenvalues --   -0.33653  -0.33459  -0.33102  -0.32829  -0.32310
 Alpha  occ. eigenvalues --   -0.31967  -0.31837  -0.31543  -0.31109  -0.30928
 Alpha  occ. eigenvalues --   -0.30080  -0.29883  -0.29728  -0.29121  -0.28858
 Alpha  occ. eigenvalues --   -0.28268  -0.27803  -0.27542  -0.26823  -0.26645
 Alpha  occ. eigenvalues --   -0.26314  -0.25556  -0.25081  -0.24668  -0.24396
 Alpha  occ. eigenvalues --   -0.24203  -0.23339
 Alpha virt. eigenvalues --   -0.16409  -0.15919  -0.15678  -0.15278  -0.15001
 Alpha virt. eigenvalues --   -0.14405  -0.13707  -0.12936  -0.12530  -0.12296
 Alpha virt. eigenvalues --   -0.11953  -0.11436  -0.11253  -0.11123  -0.10931

 Mulliken charges:
               1
     1  Mo  -0.248106
     2  S    0.139002
     3  S    0.069425
     4  S    0.229249
     5  S    0.005655
     6  Mo  -0.403318
     7  S    0.150427
     8  S    0.340146
     9  Mo  -0.241828
    10  S    0.159273
    11  S   -0.169868
    12  Mo   0.233913
    13  Mo  -0.293933
    14  S   -0.044561
    15  S   -0.182349
    16  S   -0.029654
    17  S    0.051386
    18  Mo   0.234754
    19  S   -0.232104
    20  S   -0.030624
    21  Mo   0.244496
    22  S   -0.231109
    23  S   -0.073757
    24  Mo  -0.371382
    25  S    0.086879
    26  H    0.132407
    27  H    0.144233
    28  S    0.020298
    29  H    0.157549
    30  H    0.153504
 Sum of Mulliken charges =  -0.00000

 Dipole moment (field-independent basis, Debye):
    X=              2.0491    Y=              9.0745    Z=             -4.7040  Tot=             10.4247
 Quadrupole moment (field-independent basis, Debye-Ang):
   XX=           -458.1034   YY=           -333.2582   ZZ=           -529.0068
   XY=             22.6836   XZ=              0.8729   YZ=             66.7818

  Exact polarizability:    1015.488    -100.036     570.135     147.190    -107.236     667.418
 Approx polarizability:    2749.213    -143.034    1729.293     278.229    -250.047    2196.767

                      1                      2                      3
                      A                      A                      A
 Frequencies --     27.2591                31.1259                40.8151
 Red. masses --     18.5444                21.2444                 8.1847
 Frc consts  --      0.0081                 0.0121                 0.0080
 IR Inten    --      2.1301                 1.2240                 0.2302

                      4                      5                      6
                      A                      A                      A
 Frequencies --     49.5739                56.6257                59.3305
 Red. masses --     26.8470                13.5650                15.4275
 Frc consts  --      0.0389                 0.0256                 0.0320
 IR Inten    --      0.2834                 2.7774                 0.6133

                      7                      8                      9
                      A                      A                      A
 Frequencies --     63.9122                68.4849                74.3017
 Red. masses --      1.5245                27.5291                 7.8941
 Frc consts  --      0.0037                 0.0761                 0.0257
 IR Inten    --     11.6980                 0.3112                 1.8623

                     10                     11                     12
                      A                      A                      A
 Frequencies --     76.4070                82.2334                83.9524
 Red. masses --     19.6204                15.5533                24.5071
 Frc consts  --      0.0675                 0.0620                 0.1018
 IR Inten    --      1.3185                 1.2778                 0.8871

                     13                     14                     15
                      A                      A                      A
 Frequencies --     90.6403                92.4151               101.3393
 Red. masses --     24.7807                23.2667                33.8222
 Frc consts  --      0.1200                 0.1171                 0.2046
 IR Inten    --      2.2383                 1.1305                 0.4053

                     16                     17                     18
                      A                      A                      A
 Frequencies --    103.7760               108.4277               114.0056
 Red. masses --     17.9700                15.2735                32.7100
 Frc consts  --      0.1140                 0.1058                 0.2505
 IR Inten    --      2.4824                 5.9552                 0.1957

                     19                     20                     21
                      A                      A                      A
 Frequencies --    118.9863               123.4287               126.3921
 Red. masses --     33.3461                37.2222                36.0414
 Frc consts  --      0.2782                 0.3341                 0.3392
 IR Inten    --      0.4637                 6.1987                 0.4979

                     22                     23                     24
                      A                      A                      A
 Frequencies --    132.1743               136.4418               145.8818
 Red. masses --     30.9267                33.3073                37.9467
 Frc consts  --      0.3183                 0.3653                 0.4758
 IR Inten    --      2.0549                 0.1302                 0.6942

                     25                     26                     27
                      A                      A                      A
 Frequencies --    148.5527               149.7263               152.7074
 Red. masses --     40.5569                35.5781                40.4985
 Frc consts  --      0.5273                 0.4699                 0.5564
 IR Inten    --      1.1443                 2.1767                 0.3085

                     28                     29                     30
                      A                      A                      A
 Frequencies --    165.0182               167.0411               174.5917
 Red. masses --     21.3765                42.8797                32.4735
 Frc consts  --      0.3430                 0.7049                 0.5832
 IR Inten    --      0.1490                 3.5321                 1.5035

                     31                     32                     33
                      A                      A                      A
 Frequencies --    176.1631               184.0824               185.4576
 Red. masses --     39.0180                39.3019                46.8066
 Frc consts  --      0.7134                 0.7847                 0.9485
 IR Inten    --      0.4720                 0.5724                 2.2638

                     34                     35                     36
                      A                      A                      A
 Frequencies --    188.4295               197.3359               209.7223
 Red. masses --     34.7403                40.5007                25.0238
 Frc consts  --      0.7267                 0.9292                 0.6485
 IR Inten    --      0.3064                 0.1902                 0.6482

                     37                     38                     39
                      A                      A                      A
 Frequencies --    213.8635               214.9630               217.6412
 Red. masses --     26.1739                36.7509                26.1479
 Frc consts  --      0.7053                 1.0006                 0.7297
 IR Inten    --      0.4726                 3.3104                 0.5721

                     40                     41                     42
                      A                      A                      A
 Frequencies --    230.0756               236.1495               243.9664
 Red. masses --     37.7390                35.9222                23.3576
 Frc consts  --      1.1770                 1.1803                 0.8191
 IR Inten    --      1.5262                 2.7296                10.4891

                     43                     44                     45
                      A                      A                      A
 Frequencies --    254.0899               259.2636               264.3794
 Red. masses --     11.9976                33.3341                11.7142
 Frc consts  --      0.4564                 1.3201                 0.4824
 IR Inten    --      2.6209                 1.2477                 2.9047

                     46                     47                     48
                      A                      A                      A
 Frequencies --    266.8883               270.6763               272.8011
 Red. masses --      4.1144                 2.9264                 4.6649
 Frc consts  --      0.1727                 0.1263                 0.2045
 IR Inten    --      5.0521                23.7340                 5.0362

                     49                     50                     51
                      A                      A                      A
 Frequencies --    279.0254               284.8211               292.6570
 Red. masses --     12.3998                33.9735                38.0897
 Frc consts  --      0.5688                 1.6238                 1.9221
 IR Inten    --      6.0969                 3.0475                 1.4320

                     52                     53                     54
                      A                      A                      A
 Frequencies --    300.7114               302.1207               310.1798
 Red. masses --     20.1294                30.0886                36.7145
 Frc consts  --      1.0725                 1.6181                 2.0812
 IR Inten    --      3.7905                 5.3451                 3.3491

                     55                     56                     57
                      A                      A                      A
 Frequencies --    316.4483               331.9524               337.0920
 Red. masses --     35.7132                43.5445                45.3640
 Frc consts  --      2.1071                 2.8271                 3.0371
 IR Inten    --      1.0371                 3.5156                 1.3758

                     58                     59                     60
                      A                      A                      A
 Frequencies --    343.3851               383.8255               390.1539
 Red. masses --     38.1743                27.8912                29.4127
 Frc consts  --      2.6521                 2.4209                 2.6379
 IR Inten    --      5.5468                13.9456                43.0167

                     61                     62                     63
                      A                      A                      A
 Frequencies --    401.4173               406.2584               414.3505
 Red. masses --     29.8032                30.8661                32.4552
 Frc consts  --      2.8295                 3.0015                 3.2830
 IR Inten    --      3.8393                13.7938                 5.3842

                     64                     65                     66
                      A                      A                      A
 Frequencies --    423.3558               430.5118               432.4987
 Red. masses --     33.7878                16.4657                 4.2807
 Frc consts  --      3.5680                 1.7980                 0.4718
 IR Inten    --      7.0577                 2.6571                15.4344

                     67                     68                     69
                      A                      A                      A
 Frequencies --    437.2772               441.0739               446.8866
 Red. masses --     27.9485                11.3926                 4.0527
 Frc consts  --      3.1486                 1.3059                 0.4769
 IR Inten    --     16.6212                 9.7220                13.3858

                     70                     71                     72
                      A                      A                      A
 Frequencies --    455.4334               457.3456               467.2907
 Red. masses --      3.0765                 9.7778                39.0929
 Frc consts  --      0.3760                 1.2050                 5.0295
 IR Inten    --     29.2162                20.9776                14.9598

                     73                     74                     75
                      A                      A                      A
 Frequencies --    516.2838               545.1520               557.7061
 Red. masses --      1.0602                 1.0921                38.9522
 Frc consts  --      0.1665                 0.1912                 7.1383
 IR Inten    --      8.3514                22.1828               209.8413

                     76                     77                     78
                      A                      A                      A
 Frequencies --    566.4044               570.7429               638.8627
 Red. masses --     39.1752                36.5598                 1.0442
 Frc consts  --      7.4048                 7.0167                 0.2511
 IR Inten    --     75.8230               167.4247                14.5780

                     79                     80                     81
                      A                      A                      A
 Frequencies --   1213.3564              1219.1665              2395.5775
 Red. masses --      1.0387                 1.0375                 1.0402
 Frc consts  --      0.9010                 0.9086                 3.5171
 IR Inten    --     10.3655                 1.3317               327.3406

                     82                     83                     84
                      A                      A                      A
 Frequencies --   2660.5137              2669.4864              2691.4285
 Red. masses --      1.0375                 1.0361                 1.0395
 Frc consts  --      4.3269                 4.3501                 4.4363
 IR Inten    --      0.6673                 3.2373                 7.7080

 - Thermochemistry -
 -------------------
 Temperature   298.150 Kelvin.  Pressure   1.00000 Atm.
 Atom     1 has atomic number 42 and mass  97.90550

 Molecular mass:  1362.77259 amu.
 Principal axes and moments of inertia in atomic units:
                           1         2         3
     Eigenvalues --  ******************************
           X            0.87240  -0.48879  -0.00068
           Y           -0.28652  -0.51252   0.80946
           Z            0.39601   0.70598   0.58717
 This molecule is an asymmetric top.
 Rotational symmetry number  1.
 Warning -- assumption of classical behavior for rotation
           may cause significant error
 Rotational temperatures (Kelvin)      0.00363     0.00151     0.00129
 Rotational constants (GHZ):           0.07561     0.03148     0.02697
 Zero-point vibrational energy     194287.1 (Joules/Mol)
                                   46.43574 (Kcal/Mol)
 Warning -- explicit consideration of  77 degrees of freedom as
           vibrations may cause significant error
 Vibrational temperatures:     39.22    44.78    58.72    71.33    81.47
          (Kelvin)             85.36    91.96    98.53   106.90   109.93
                              118.32   120.79   130.41   132.96   145.80
                              149.31   156.00   164.03   171.19   177.59
                              181.85   190.17   196.31   209.89   213.73
                              215.42   219.71   237.42   240.33   251.20
                              253.46   264.85   266.83   271.11   283.92
                              301.74   307.70   309.28   313.14   331.03
                              339.77   351.01   365.58   373.02   380.38
                              383.99   389.44   392.50   401.46   409.79
                              421.07   432.66   434.68   446.28   455.30
                              477.61   485.00   494.05   552.24   561.34
                              577.55   584.52   596.16   609.11   619.41
                              622.27   629.14   634.61   642.97   655.27
                              658.02   672.33   742.82   784.35   802.41
                              814.93   821.17   919.18  1745.75  1754.11
                             3446.70  3827.89  3840.80  3872.37

 Zero-point correction=                           0.074000 (Hartree/Particle)
 Thermal correction to Energy=                    0.117404
 Thermal correction to Enthalpy=                  0.118348
 Thermal correction to Gibbs Free Energy=        -0.004977
 Sum of electronic and zero-point Energies=          -7710.939246
 Sum of electronic and thermal Energies=             -7710.895843
 Sum of electronic and thermal Enthalpies=           -7710.894898
 Sum of electronic and thermal Free Energies=        -7711.018224

                     E (Thermal)             CV                S
                      KCal/Mol        Cal/Mol-Kelvin    Cal/Mol-Kelvin
 Total                   73.672            139.855            259.560
 Electronic               0.000              0.000              0.000
 Translational            0.889              2.981             47.504
 Rotational               0.889              2.981             39.745
 Vibrational             71.894            133.893            172.310
 Vibration     1          0.593              1.984              6.020
 Vibration     2          0.594              1.983              5.756
 Vibration     3          0.594              1.981              5.219
 Vibration     4          0.595              1.978              4.834
 Vibration     5          0.596              1.975              4.571
 Vibration     6          0.597              1.974              4.479
 Vibration     7          0.597              1.972              4.333
 Vibration     8          0.598              1.969              4.196
 Vibration     9          0.599              1.966              4.036
 Vibration    10          0.599              1.965              3.981
 Vibration    11          0.600              1.961              3.837
 Vibration    12          0.601              1.960              3.796
 Vibration    13          0.602              1.956              3.646
 Vibration    14          0.602              1.955              3.608
 Vibration    15          0.604              1.948              3.428
 Vibration    16          0.605              1.946              3.382
 Vibration    17          0.606              1.942              3.297
 Vibration    18          0.607              1.938              3.200
 Vibration    19          0.609              1.933              3.117
 Vibration    20          0.610              1.929              3.046
 Vibration    21          0.611              1.927              3.000
 Vibration    22          0.612              1.921              2.914
 Vibration    23          0.614              1.917              2.853
 Vibration    24          0.617              1.907              2.725
 Vibration    25          0.618              1.904              2.691
 Vibration    26          0.618              1.903              2.676
 Vibration    27          0.619              1.900              2.638
 Vibration    28          0.623              1.885              2.491
 Vibration    29          0.624              1.883              2.469
 Vibration    30          0.627              1.874              2.385
 Vibration    31          0.628              1.872              2.369
 Vibration    32          0.631              1.862              2.287
 Vibration    33          0.632              1.860              2.273
 Vibration    34          0.633              1.856              2.243
 Vibration    35          0.637              1.844              2.158
 Vibration    36          0.642              1.826              2.046
 Vibration    37          0.644              1.820              2.010
 Vibration    38          0.645              1.818              2.001
 Vibration    39          0.646              1.814              1.979
 Vibration    40          0.652              1.795              1.878
 Vibration    41          0.655              1.785              1.832
 Vibration    42          0.659              1.773              1.774
 Vibration    43          0.665              1.756              1.702
 Vibration    44          0.668              1.747              1.667
 Vibration    45          0.671              1.738              1.633
 Vibration    46          0.672              1.734              1.616
 Vibration    47          0.674              1.727              1.592
 Vibration    48          0.676              1.723              1.578
 Vibration    49          0.679              1.712              1.540
 Vibration    50          0.683              1.702              1.505
 Vibration    51          0.688              1.687              1.459
 Vibration    52          0.693              1.672              1.413
 Vibration    53          0.694              1.670              1.405
 Vibration    54          0.699              1.654              1.361
 Vibration    55          0.703              1.642              1.328
 Vibration    56          0.714              1.612              1.251
 Vibration    57          0.718              1.601              1.226
 Vibration    58          0.722              1.589              1.196
 Vibration    59          0.753              1.505              1.024
 Vibration    60          0.758              1.491              1.000
 Vibration    61          0.767              1.467              0.957
 Vibration    62          0.771              1.457              0.940
 Vibration    63          0.778              1.439              0.911
 Vibration    64          0.786              1.419              0.881
 Vibration    65          0.792              1.404              0.857
 Vibration    66          0.793              1.399              0.851
 Vibration    67          0.798              1.389              0.835
 Vibration    68          0.801              1.381              0.823
 Vibration    69          0.806              1.368              0.805
 Vibration    70          0.814              1.349              0.780
 Vibration    71          0.815              1.345              0.774
 Vibration    72          0.825              1.323              0.745
 Vibration    73          0.871              1.214              0.619
 Vibration    74          0.900              1.150              0.554
 Vibration    75          0.913              1.123              0.528
 Vibration    76          0.922              1.104              0.511
 Vibration    77          0.927              1.095              0.503

                           ! Non-Optimized Parameters !
 Normal termination of Gaussian 16 at Sat Dec 10 09:54:48 2022.
