 Gaussian 16, Revision C.01,
 Gaussian 16:  ES64L-G16RevC.01  3-Jul-2019

 ---------------------------------------
 # opt freq b3lyp/gen nosymm pseudo=read
 ---------------------------------------

 -------------------
 Title Card Required
 -------------------
 Symbolic Z-matrix:
 Charge =  0 Multiplicity = 1

 SCF Done:  E(RB3LYP) =  -7709.88016571     A.U. after   32 cycles
 SCF Done:  E(RB3LYP) =  -7709.88088490     A.U. after   19 cycles
 SCF Done:  E(RB3LYP) =  -7709.88118542     A.U. after   19 cycles
 SCF Done:  E(RB3LYP) =  -7709.88121946     A.U. after   16 cycles
 SCF Done:  E(RB3LYP) =  -7709.88125528     A.U. after   17 cycles
 SCF Done:  E(RB3LYP) =  -7709.88126515     A.U. after   15 cycles
 SCF Done:  E(RB3LYP) =  -7709.88127068     A.U. after   15 cycles
 SCF Done:  E(RB3LYP) =  -7709.88127306     A.U. after   15 cycles
 SCF Done:  E(RB3LYP) =  -7709.88127467     A.U. after   15 cycles
 SCF Done:  E(RB3LYP) =  -7709.88127539     A.U. after   14 cycles
 SCF Done:  E(RB3LYP) =  -7709.88127577     A.U. after   13 cycles
 SCF Done:  E(RB3LYP) =  -7709.88127590     A.U. after   12 cycles
 SCF Done:  E(RB3LYP) =  -7709.88127597     A.U. after   11 cycles
 Optimization completed.
    -- Stationary point found.
 Normal termination of Gaussian 16 at Sat Dec 10 11:16:35 2022.

 ------------------------------------------------------------------
 #N Geom=AllCheck Guess=TCheck SCRF=Check GenChk RB3LYP/ChkBas Freq
 ------------------------------------------------------------------

 Structure from the checkpoint file:  "/home/chesagar/scratch/Gau-139563.chk"
 -------------------
 Title Card Required
 -------------------
 Charge =  0 Multiplicity = 1

                          Input orientation:
 ---------------------------------------------------------------------
 Center     Atomic      Atomic             Coordinates (Angstroms)
 Number     Number       Type             X           Y           Z
 ---------------------------------------------------------------------
      1         42           0        0.309133    2.307738   12.317489
      2         16           0        1.208248    4.220395   11.876609
      3         16           0       -1.734614    2.725158   13.258261
      4         16           0       -0.322423    1.360573   10.221645
      5         16           0        2.082873    0.303506   11.883006
      6         42           0       -2.122683    2.765570   10.896462
      7         16           0       -3.184180    1.767081    8.859853
      8         16           0       -1.582051    5.000109   10.433578
      9         42           0        0.251892    3.654216    9.533529
     10         16           0       -0.478388    2.808559    7.340938
     11         16           0        2.629133    2.698104    9.086830
     12         42           0        3.674563    1.729550   10.832463
     13         42           0       -2.307438    4.055494    8.393485
     14         16           0        4.451844    3.044063   12.608349
     15         16           0        5.281748    0.538826   10.174526
     16         16           0       -4.592525    5.046149    8.530031
     17         16           0       -1.809317    6.230357    7.280865
     18         42           0       -4.907539    3.109245    9.610105
     19         16           0       -6.829011    2.298356    9.225212
     20         16           0       -4.473600    3.371069   11.770003
     21         42           0        3.148333    1.417948   13.632051
     22         16           0        4.325405    0.076619   14.758298
     23         16           0        1.211654    2.113715   14.623575
     24         42           0        0.039583    5.059520    7.124439
     25         16           0        1.028052    5.118670    5.017051
     26          1           0        1.949333    4.140082    5.177551
     27         16           0        1.365886    5.871736    8.962166
     28          1           0        2.579485    5.440788    8.536284
 ---------------------------------------------------------------------

 SCF Done:  E(RB3LYP) =  -7709.88127597     A.U. after    3 cycles

 Alpha  occ. eigenvalues --  -88.93600 -88.92373 -88.92321 -88.92263 -88.92223
 Alpha  occ. eigenvalues --  -88.91778 -88.91703 -88.91453 -88.91100 -88.89750
 Alpha  occ. eigenvalues --  -88.89179 -88.89136 -88.88562 -88.88248 -88.88184
 Alpha  occ. eigenvalues --  -88.88014 -88.87875 -88.87849  -8.01179  -7.99910
 Alpha  occ. eigenvalues --   -7.99852  -7.99690  -7.99673  -7.99443  -7.99332
 Alpha  occ. eigenvalues --   -7.99071  -7.98943  -7.97364  -7.96919  -7.96878
 Alpha  occ. eigenvalues --   -7.96323  -7.96223  -7.96076  -7.95819  -7.95788
 Alpha  occ. eigenvalues --   -7.95558  -5.97401  -5.97063  -5.96956  -5.95957
 Alpha  occ. eigenvalues --   -5.95888  -5.95877  -5.95806  -5.95762  -5.95753
 Alpha  occ. eigenvalues --   -5.95737  -5.95684  -5.95678  -5.95659  -5.95629
 Alpha  occ. eigenvalues --   -5.95528  -5.95444  -5.95379  -5.95355  -5.95350
 Alpha  occ. eigenvalues --   -5.95307  -5.95219  -5.95186  -5.95105  -5.95024
 Alpha  occ. eigenvalues --   -5.94951  -5.94818  -5.94658  -5.93468  -5.93287
 Alpha  occ. eigenvalues --   -5.93206  -5.93029  -5.92982  -5.92864  -5.92819
 Alpha  occ. eigenvalues --   -5.92707  -5.92677  -5.92379  -5.92254  -5.92214
 Alpha  occ. eigenvalues --   -5.92194  -5.92180  -5.92072  -5.92049  -5.92005
 Alpha  occ. eigenvalues --   -5.91961  -5.91855  -5.91809  -5.91782  -5.91768
 Alpha  occ. eigenvalues --   -5.91664  -5.91624  -5.91584  -5.91541  -5.91389
 Alpha  occ. eigenvalues --   -2.57687  -2.57679  -2.57282  -2.55828  -2.55682
 Alpha  occ. eigenvalues --   -2.55367  -2.54708  -2.54515  -1.60942  -1.60628
 Alpha  occ. eigenvalues --   -1.60137  -1.60056  -1.59795  -1.59686  -1.59608
 Alpha  occ. eigenvalues --   -1.59301  -1.59225  -1.59108  -1.58917  -1.58677
 Alpha  occ. eigenvalues --   -1.58522  -1.57498  -1.57450  -1.57408  -1.57231
 Alpha  occ. eigenvalues --   -1.57220  -1.57015  -1.56718  -1.56601  -1.56466
 Alpha  occ. eigenvalues --   -1.56201  -1.56023  -0.79068  -0.76939  -0.76540
 Alpha  occ. eigenvalues --   -0.75313  -0.75013  -0.74607  -0.73938  -0.73821
 Alpha  occ. eigenvalues --   -0.73370  -0.72309  -0.71734  -0.71348  -0.70977
 Alpha  occ. eigenvalues --   -0.70658  -0.69984  -0.69462  -0.69382  -0.69146
 Alpha  occ. eigenvalues --   -0.48893  -0.46312  -0.44749  -0.44146  -0.43516
 Alpha  occ. eigenvalues --   -0.43382  -0.41940  -0.41594  -0.41343  -0.41085
 Alpha  occ. eigenvalues --   -0.40824  -0.40288  -0.40161  -0.39604  -0.39443
 Alpha  occ. eigenvalues --   -0.39222  -0.38997  -0.38844  -0.38375  -0.38286
 Alpha  occ. eigenvalues --   -0.37944  -0.37746  -0.37687  -0.37227  -0.36945
 Alpha  occ. eigenvalues --   -0.36752  -0.36630  -0.36322  -0.36126  -0.35718
 Alpha  occ. eigenvalues --   -0.35358  -0.35261  -0.35080  -0.34740  -0.34574
 Alpha  occ. eigenvalues --   -0.34444  -0.33975  -0.33738  -0.33657  -0.32982
 Alpha  occ. eigenvalues --   -0.32837  -0.32512  -0.32366  -0.32093  -0.31643
 Alpha  occ. eigenvalues --   -0.31374  -0.30962  -0.30538  -0.30033  -0.29311
 Alpha  occ. eigenvalues --   -0.29054  -0.28796  -0.28288  -0.27635  -0.27504
 Alpha  occ. eigenvalues --   -0.26588  -0.26231  -0.25665  -0.25454  -0.24654
 Alpha  occ. eigenvalues --   -0.24511
 Alpha virt. eigenvalues --   -0.17822  -0.17195  -0.16453  -0.15686  -0.15205
 Alpha virt. eigenvalues --   -0.15153  -0.14444  -0.14100  -0.13856  -0.13316
 Alpha virt. eigenvalues --   -0.12985  -0.12762  -0.12558  -0.12278  -0.12104

 Mulliken charges:
               1
     1  Mo  -0.142353
     2  S    0.167199
     3  S    0.066463
     4  S    0.188015
     5  S    0.048221
     6  Mo  -0.231800
     7  S    0.088791
     8  S    0.367644
     9  Mo  -0.694227
    10  S    0.204962
    11  S   -0.142381
    12  Mo   0.252427
    13  Mo  -0.312412
    14  S   -0.037893
    15  S   -0.173969
    16  S   -0.030531
    17  S    0.032570
    18  Mo   0.319606
    19  S   -0.200740
    20  S   -0.032078
    21  Mo   0.204890
    22  S   -0.208773
    23  S   -0.033669
    24  Mo   0.038363
    25  S   -0.095638
    26  H    0.113711
    27  S    0.115586
    28  H    0.128017
 Sum of Mulliken charges =  -0.00000

 Dipole moment (field-independent basis, Debye):
    X=              0.9219    Y=              1.9028    Z=             -4.1928  Tot=              4.6958
 Quadrupole moment (field-independent basis, Debye-Ang):
   XX=           -442.7866   YY=           -407.4042   ZZ=           -506.2560
   XY=             13.2926   XZ=              0.1051   YZ=              5.0328

  Exact polarizability:    1002.466     -92.642     517.828     103.800    -169.570     768.891
 Approx polarizability:    2658.947     -86.180    1664.659       4.189    -472.409    2400.373

                      1                      2                      3
                      A                      A                      A
 Frequencies --     30.0657                35.4964                38.2235
 Red. masses --     32.7210                21.5109                22.5031
 Frc consts  --      0.0174                 0.0160                 0.0194
 IR Inten    --      0.3667                 0.4602                 0.8682

                      4                      5                      6
                      A                      A                      A
 Frequencies --     46.1365                55.8602                63.3799
 Red. masses --     10.5233                22.7148                28.6420
 Frc consts  --      0.0132                 0.0418                 0.0678
 IR Inten    --      0.0942                 0.1719                 0.9696

                      7                      8                      9
                      A                      A                      A
 Frequencies --     66.6850                75.7090                77.8691
 Red. masses --     28.1004                41.0088                35.2404
 Frc consts  --      0.0736                 0.1385                 0.1259
 IR Inten    --      0.2688                 0.1555                 2.3143

                     10                     11                     12
                      A                      A                      A
 Frequencies --     82.9028                85.8876                89.0963
 Red. masses --     36.4112                40.1306                32.5497
 Frc consts  --      0.1474                 0.1744                 0.1522
 IR Inten    --      1.1620                 1.0152                 0.2503

                     13                     14                     15
                      A                      A                      A
 Frequencies --     95.5385                97.7108                99.6255
 Red. masses --     34.7148                38.0626                32.1478
 Frc consts  --      0.1867                 0.2141                 0.1880
 IR Inten    --      2.5243                 0.2170                 4.3063

                     16                     17                     18
                      A                      A                      A
 Frequencies --    110.7585               119.3077               123.5679
 Red. masses --     31.5399                39.2035                35.5539
 Frc consts  --      0.2280                 0.3288                 0.3199
 IR Inten    --      0.4551                 0.7137                 0.0820

                     19                     20                     21
                      A                      A                      A
 Frequencies --    130.3863               133.5682               133.7711
 Red. masses --     42.1788                34.8537                25.8370
 Frc consts  --      0.4225                 0.3664                 0.2724
 IR Inten    --      0.2679                 0.7950                 1.0172

                     22                     23                     24
                      A                      A                      A
 Frequencies --    142.7106               145.0285               150.2033
 Red. masses --     38.3900                42.7821                41.2425
 Frc consts  --      0.4607                 0.5302                 0.5482
 IR Inten    --      0.2523                 4.1048                 0.9474

                     25                     26                     27
                      A                      A                      A
 Frequencies --    157.6432               160.5096               165.3187
 Red. masses --     33.6792                27.8779                44.9483
 Frc consts  --      0.4931                 0.4232                 0.7238
 IR Inten    --      0.6978                 0.5532                 0.1474

                     28                     29                     30
                      A                      A                      A
 Frequencies --    169.5133               170.5859               177.6108
 Red. masses --     35.9872                33.1178                37.5871
 Frc consts  --      0.6093                 0.5678                 0.6986
 IR Inten    --      2.0902                 3.2207                 0.6080

                     31                     32                     33
                      A                      A                      A
 Frequencies --    180.7361               188.2586               193.8293
 Red. masses --     37.7181                42.1889                32.9557
 Frc consts  --      0.7259                 0.8810                 0.7295
 IR Inten    --      0.1727                 1.3443                 6.0967

                     34                     35                     36
                      A                      A                      A
 Frequencies --    202.3615               207.5797               212.1853
 Red. masses --     35.4375                35.3328                36.9433
 Frc consts  --      0.8550                 0.8970                 0.9800
 IR Inten    --      1.9104                 0.1822                 8.3097

                     37                     38                     39
                      A                      A                      A
 Frequencies --    221.3084               232.2778               237.8943
 Red. masses --     36.1002                22.6288                30.4036
 Frc consts  --      1.0417                 0.7193                 1.0138
 IR Inten    --      0.0489                 3.8454                 6.3361

                     40                     41                     42
                      A                      A                      A
 Frequencies --    244.0866               262.8412               264.9568
 Red. masses --     34.9589                 9.2667                30.1435
 Frc consts  --      1.2271                 0.3772                 1.2468
 IR Inten    --      2.6472                 4.4191                13.6984

                     43                     44                     45
                      A                      A                      A
 Frequencies --    268.8208               275.7473               286.4920
 Red. masses --     27.4512                 6.0026                 4.5251
 Frc consts  --      1.1688                 0.2689                 0.2188
 IR Inten    --     10.4051                 3.3052                 8.8457

                     46                     47                     48
                      A                      A                      A
 Frequencies --    290.3264               295.8632               298.0362
 Red. masses --      7.3449                 8.5848                12.9498
 Frc consts  --      0.3648                 0.4428                 0.6777
 IR Inten    --      3.2088                 2.9737                 3.1316

                     49                     50                     51
                      A                      A                      A
 Frequencies --    301.2313               305.2001               320.9234
 Red. masses --      9.0214                22.1462                21.1201
 Frc consts  --      0.4823                 1.2154                 1.2816
 IR Inten    --      5.3378                 0.7866                 0.4090

                     52                     53                     54
                      A                      A                      A
 Frequencies --    338.4721               339.8853               347.8285
 Red. masses --     30.1861                38.8814                33.7809
 Frc consts  --      2.0375                 2.6464                 2.4080
 IR Inten    --      2.8597                 5.7116                 7.5990

                     55                     56                     57
                      A                      A                      A
 Frequencies --    350.5660               364.7664               382.4688
 Red. masses --     26.9395                40.0963                23.3888
 Frc consts  --      1.9506                 3.1433                 2.0158
 IR Inten    --     27.6893                 6.3511                56.5471

                     58                     59                     60
                      A                      A                      A
 Frequencies --    401.5051               404.4767               415.6242
 Red. masses --     35.0320                34.0217                35.7535
 Frc consts  --      3.3273                 3.2794                 3.6389
 IR Inten    --     12.9508                 6.4628                11.9425

                     61                     62                     63
                      A                      A                      A
 Frequencies --    424.5249               427.9261               433.2423
 Red. masses --     35.4612                35.5000                28.9784
 Frc consts  --      3.7654                 3.8301                 3.2047
 IR Inten    --     22.0926                10.9925                 1.6833

                     64                     65                     66
                      A                      A                      A
 Frequencies --    437.8510               441.0452               444.2074
 Red. masses --     35.2373                35.0121                39.1802
 Frc consts  --      3.9802                 4.0127                 4.5550
 IR Inten    --      0.5535                11.1829                33.8236

                     67                     68                     69
                      A                      A                      A
 Frequencies --    458.4002               474.4329               480.4651
 Red. masses --     28.9894                39.1055                 8.1539
 Frc consts  --      3.5890                 5.1861                 1.1090
 IR Inten    --      5.0885                19.0219                34.0706

                     70                     71                     72
                      A                      A                      A
 Frequencies --    508.8137               538.7124               563.3505
 Red. masses --     38.0186                 1.1662                39.4825
 Frc consts  --      5.7991                 0.1994                 7.3827
 IR Inten    --      4.7859                10.3653               201.0768

                     73                     74                     75
                      A                      A                      A
 Frequencies --    569.3655               573.4041               589.9941
 Red. masses --     37.8365                36.3686                 1.0870
 Frc consts  --      7.2268                 7.0453                 0.2229
 IR Inten    --     53.2048               174.8786                 8.7041

                     76                     77                     78
                      A                      A                      A
 Frequencies --    670.9862              2602.8579              2651.1534
 Red. masses --      1.0707                 1.0382                 1.0380
 Frc consts  --      0.2840                 4.1442                 4.2987
 IR Inten    --      1.5803                 6.1769                 7.9993

 - Thermochemistry -
 -------------------
 Temperature   298.150 Kelvin.  Pressure   1.00000 Atm.
 Atom     1 has atomic number 42 and mass  97.90550

 Molecular mass:  1360.75694 amu.
 Principal axes and moments of inertia in atomic units:
                           1         2         3
     Eigenvalues --  ******************************
           X            0.83126  -0.55355   0.05098
           Y           -0.29373  -0.35952   0.88570
           Z            0.47195   0.75122   0.46144
 This molecule is an asymmetric top.
 Rotational symmetry number  1.
 Warning -- assumption of classical behavior for rotation
           may cause significant error
 Rotational temperatures (Kelvin)      0.00347     0.00155     0.00121
 Rotational constants (GHZ):           0.07221     0.03235     0.02513
 Zero-point vibrational energy     150478.0 (Joules/Mol)
                                   35.96510 (Kcal/Mol)
 Warning -- explicit consideration of  75 degrees of freedom as
           vibrations may cause significant error
 Vibrational temperatures:     43.26    51.07    55.00    66.38    80.37
          (Kelvin)             91.19    95.94   108.93   112.04   119.28
                              123.57   128.19   137.46   140.58   143.34
                              159.36   171.66   177.79   187.60   192.17
                              192.47   205.33   208.66   216.11   226.81
                              230.94   237.86   243.89   245.44   255.54
                              260.04   270.86   278.88   291.15   298.66
                              305.29   318.41   334.20   342.28   351.19
                              378.17   381.21   386.77   396.74   412.20
                              417.71   425.68   428.81   433.40   439.11
                              461.74   486.99   489.02   500.45   504.39
                              524.82   550.29   577.68   581.95   597.99
                              610.80   615.69   623.34   629.97   634.57
                              639.12   659.54   682.60   691.28   732.07
                              775.09   810.54   819.19   825.00   848.87
                              965.40  3744.93  3814.42

 Zero-point correction=                           0.057314 (Hartree/Particle)
 Thermal correction to Energy=                    0.098760
 Thermal correction to Enthalpy=                  0.099705
 Thermal correction to Gibbs Free Energy=        -0.019204
 Sum of electronic and zero-point Energies=          -7709.823962
 Sum of electronic and thermal Energies=             -7709.782516
 Sum of electronic and thermal Enthalpies=           -7709.781571
 Sum of electronic and thermal Free Energies=        -7709.900480

                     E (Thermal)             CV                S
                      KCal/Mol        Cal/Mol-Kelvin    Cal/Mol-Kelvin
 Total                   61.973            134.613            250.265
 Electronic               0.000              0.000              0.000
 Translational            0.889              2.981             47.500
 Rotational               0.889              2.981             39.834
 Vibrational             60.196            128.651            162.931
 Vibration     1          0.594              1.984              5.825
 Vibration     2          0.594              1.982              5.496
 Vibration     3          0.594              1.982              5.349
 Vibration     4          0.595              1.979              4.976
 Vibration     5          0.596              1.975              4.598
 Vibration     6          0.597              1.972              4.349
 Vibration     7          0.598              1.970              4.249
 Vibration     8          0.599              1.965              3.999
 Vibration     9          0.599              1.964              3.944
 Vibration    10          0.600              1.961              3.821
 Vibration    11          0.601              1.959              3.752
 Vibration    12          0.602              1.957              3.680
 Vibration    13          0.603              1.952              3.543
 Vibration    14          0.603              1.951              3.499
 Vibration    15          0.604              1.949              3.462
 Vibration    16          0.607              1.941              3.256
 Vibration    17          0.609              1.933              3.112
 Vibration    18          0.610              1.929              3.044
 Vibration    19          0.612              1.923              2.940
 Vibration    20          0.613              1.920              2.894
 Vibration    21          0.613              1.920              2.891
 Vibration    22          0.616              1.910              2.767
 Vibration    23          0.616              1.908              2.736
 Vibration    24          0.618              1.902              2.670
 Vibration    25          0.621              1.894              2.578
 Vibration    26          0.622              1.891              2.544
 Vibration    27          0.624              1.885              2.488
 Vibration    28          0.625              1.880              2.441
 Vibration    29          0.626              1.879              2.429
 Vibration    30          0.628              1.870              2.353
 Vibration    31          0.630              1.866              2.321
 Vibration    32          0.633              1.856              2.245
 Vibration    33          0.635              1.848              2.191
 Vibration    34          0.639              1.837              2.112
 Vibration    35          0.641              1.829              2.065
 Vibration    36          0.643              1.822              2.025
 Vibration    37          0.648              1.809              1.948
 Vibration    38          0.653              1.792              1.861
 Vibration    39          0.656              1.783              1.819
 Vibration    40          0.659              1.773              1.773
 Vibration    41          0.670              1.741              1.643
 Vibration    42          0.671              1.737              1.629
 Vibration    43          0.673              1.730              1.604
 Vibration    44          0.677              1.718              1.560
 Vibration    45          0.684              1.699              1.495
 Vibration    46          0.686              1.692              1.472
 Vibration    47          0.690              1.681              1.440
 Vibration    48          0.691              1.677              1.428
 Vibration    49          0.693              1.671              1.410
 Vibration    50          0.696              1.664              1.388
 Vibration    51          0.706              1.633              1.305
 Vibration    52          0.719              1.599              1.219
 Vibration    53          0.720              1.596              1.213
 Vibration    54          0.725              1.580              1.176
 Vibration    55          0.727              1.574              1.164
 Vibration    56          0.738              1.545              1.102
 Vibration    57          0.752              1.508              1.029
 Vibration    58          0.767              1.467              0.957
 Vibration    59          0.770              1.460              0.946
 Vibration    60          0.779              1.436              0.907
 Vibration    61          0.787              1.417              0.877
 Vibration    62          0.789              1.409              0.865
 Vibration    63          0.794              1.398              0.848
 Vibration    64          0.798              1.388              0.833
 Vibration    65          0.801              1.381              0.823
 Vibration    66          0.804              1.374              0.813
 Vibration    67          0.816              1.342              0.771
 Vibration    68          0.831              1.307              0.725
 Vibration    69          0.837              1.293              0.709
 Vibration    70          0.864              1.230              0.636
 Vibration    71          0.894              1.164              0.568
 Vibration    72          0.919              1.111              0.517
 Vibration    73          0.925              1.098              0.505
 Vibration    74          0.930              1.089              0.498
 Vibration    75          0.947              1.053              0.467

                           ! Non-Optimized Parameters !
 Normal termination of Gaussian 16 at Sat Dec 10 11:25:02 2022.
