 Gaussian 16, Revision C.01,
 Gaussian 16:  ES64L-G16RevC.01  3-Jul-2019

 -----------------------------------------------------------
 # opt=(calcfc,ts,noeigen) freq b3lyp/gen nosymm pseudo=read
 -----------------------------------------------------------

 -------------------
 Title Card Required
 -------------------
 Symbolic Z-matrix:
 Charge =  0 Multiplicity = 1

 SCF Done:  E(RB3LYP) =  -7709.77874290     A.U. after   31 cycles
 SCF Done:  E(RB3LYP) =  -7709.79248703     A.U. after   22 cycles
 SCF Done:  E(RB3LYP) =  -7709.80322609     A.U. after   21 cycles
 SCF Done:  E(RB3LYP) =  -7709.81631634     A.U. after   21 cycles
 SCF Done:  E(RB3LYP) =  -7709.82234603     A.U. after   21 cycles
 SCF Done:  E(RB3LYP) =  -7709.82401599     A.U. after   22 cycles
 SCF Done:  E(RB3LYP) =  -7709.82586082     A.U. after   21 cycles
 SCF Done:  E(RB3LYP) =  -7709.82637562     A.U. after   21 cycles
 SCF Done:  E(RB3LYP) =  -7709.82659692     A.U. after   21 cycles
 SCF Done:  E(RB3LYP) =  -7709.82625816     A.U. after   21 cycles
 SCF Done:  E(RB3LYP) =  -7709.82760525     A.U. after   19 cycles
 SCF Done:  E(RB3LYP) =  -7709.82761364     A.U. after   19 cycles
 SCF Done:  E(RB3LYP) =  -7709.82762109     A.U. after   18 cycles
 SCF Done:  E(RB3LYP) =  -7709.82762240     A.U. after   15 cycles
 SCF Done:  E(RB3LYP) =  -7709.82762345     A.U. after   17 cycles
 SCF Done:  E(RB3LYP) =  -7709.82762400     A.U. after   15 cycles
 SCF Done:  E(RB3LYP) =  -7709.82762406     A.U. after   15 cycles
 SCF Done:  E(RB3LYP) =  -7709.82762420     A.U. after   14 cycles
 SCF Done:  E(RB3LYP) =  -7709.82762418     A.U. after   14 cycles
 Optimization completed.
    -- Stationary point found.
 Normal termination of Gaussian 16 at Sat Dec 10 12:43:51 2022.

 ------------------------------------------------------------------
 #N Geom=AllCheck Guess=TCheck SCRF=Check GenChk RB3LYP/ChkBas Freq
 ------------------------------------------------------------------

 Structure from the checkpoint file:  "/home/chesagar/scratch/Gau-201853.chk"
 -------------------
 Title Card Required
 -------------------
 Charge =  0 Multiplicity = 1

                          Input orientation:
 ---------------------------------------------------------------------
 Center     Atomic      Atomic             Coordinates (Angstroms)
 Number     Number       Type             X           Y           Z
 ---------------------------------------------------------------------
      1         42           0        0.282929    2.377723   12.288380
      2         16           0        1.241122    4.219186   11.609740
      3         16           0       -1.653150    2.965152   13.363684
      4         16           0       -0.491877    1.251314   10.305848
      5         16           0        1.850415    0.270465   12.125784
      6         42           0       -2.208555    2.768295   11.076917
      7         16           0       -3.202927    1.657942    8.919860
      8         16           0       -1.626307    4.911603   10.406122
      9         42           0        0.121377    3.412686    9.487443
     10         16           0       -0.507691    2.647913    7.204990
     11         16           0        2.397731    2.234834    9.008335
     12         42           0        3.486233    1.383044   10.778030
     13         42           0       -2.299113    3.880587    8.391501
     14         16           0        4.505896    2.860139   12.269581
     15         16           0        4.922336   -0.034683   10.176735
     16         16           0       -4.592092    4.924106    8.632643
     17         16           0       -1.900552    6.020055    7.189893
     18         42           0       -4.897676    2.997832    9.711122
     19         16           0       -6.820099    2.190524    9.339166
     20         16           0       -4.476718    3.299911   11.905641
     21         42           0        3.156333    1.529352   13.611817
     22         16           0        4.299833    0.280612   14.871504
     23         16           0        1.380883    2.565620   14.562272
     24         42           0        0.017055    4.880768    6.899684
     25         16           0        1.476038    5.509447    5.374705
     26          1           0        2.657715    5.863501    6.461632
     27         16           0        1.390926    5.573344    8.521329
     28          1           0        2.683329    5.831924    7.470297
 ---------------------------------------------------------------------

 SCF Done:  E(RB3LYP) =  -7709.82762418     A.U. after    3 cycles

 Alpha  occ. eigenvalues --  -88.94431 -88.93685 -88.93327 -88.92704 -88.92245
 Alpha  occ. eigenvalues --  -88.92075 -88.91770 -88.91406 -88.90579 -88.90318
 Alpha  occ. eigenvalues --  -88.90122 -88.89648 -88.89432 -88.88879 -88.88435
 Alpha  occ. eigenvalues --  -88.88271 -88.88203 -88.88125  -8.01801  -8.01082
 Alpha  occ. eigenvalues --   -8.00842  -8.00253  -7.99805  -7.99693  -7.99355
 Alpha  occ. eigenvalues --   -7.99038  -7.98314  -7.98032  -7.97815  -7.97350
 Alpha  occ. eigenvalues --   -7.97315  -7.96642  -7.96405  -7.96069  -7.95993
 Alpha  occ. eigenvalues --   -7.95985  -5.97807  -5.97788  -5.97720  -5.97159
 Alpha  occ. eigenvalues --   -5.97066  -5.96934  -5.96905  -5.96813  -5.96697
 Alpha  occ. eigenvalues --   -5.96300  -5.96215  -5.96120  -5.95815  -5.95795
 Alpha  occ. eigenvalues --   -5.95737  -5.95690  -5.95630  -5.95583  -5.95524
 Alpha  occ. eigenvalues --   -5.95286  -5.95135  -5.95101  -5.94949  -5.94924
 Alpha  occ. eigenvalues --   -5.94387  -5.94257  -5.94140  -5.94127  -5.93973
 Alpha  occ. eigenvalues --   -5.93881  -5.93844  -5.93732  -5.93686  -5.93555
 Alpha  occ. eigenvalues --   -5.93309  -5.93247  -5.93201  -5.93196  -5.93150
 Alpha  occ. eigenvalues --   -5.92707  -5.92574  -5.92489  -5.92408  -5.92376
 Alpha  occ. eigenvalues --   -5.92220  -5.92061  -5.92054  -5.92050  -5.92042
 Alpha  occ. eigenvalues --   -5.91971  -5.91960  -5.91907  -5.91814  -5.91783
 Alpha  occ. eigenvalues --   -2.58473  -2.58330  -2.57531  -2.56674  -2.56238
 Alpha  occ. eigenvalues --   -2.56057  -2.56049  -2.55887  -1.61449  -1.61288
 Alpha  occ. eigenvalues --   -1.60938  -1.60818  -1.60750  -1.60445  -1.60264
 Alpha  occ. eigenvalues --   -1.59855  -1.59425  -1.59337  -1.59163  -1.59101
 Alpha  occ. eigenvalues --   -1.59027  -1.58753  -1.58693  -1.58595  -1.58324
 Alpha  occ. eigenvalues --   -1.58126  -1.58040  -1.57713  -1.57693  -1.57461
 Alpha  occ. eigenvalues --   -1.57341  -1.57223  -0.78392  -0.76828  -0.76011
 Alpha  occ. eigenvalues --   -0.75817  -0.74870  -0.74731  -0.74291  -0.73785
 Alpha  occ. eigenvalues --   -0.73054  -0.72553  -0.71935  -0.71617  -0.71526
 Alpha  occ. eigenvalues --   -0.71128  -0.70580  -0.70253  -0.69655  -0.69386
 Alpha  occ. eigenvalues --   -0.50482  -0.45719  -0.44965  -0.44812  -0.44190
 Alpha  occ. eigenvalues --   -0.43213  -0.42777  -0.42364  -0.41868  -0.41432
 Alpha  occ. eigenvalues --   -0.40791  -0.40433  -0.40296  -0.40171  -0.39880
 Alpha  occ. eigenvalues --   -0.39783  -0.39585  -0.39072  -0.38894  -0.38778
 Alpha  occ. eigenvalues --   -0.38361  -0.38001  -0.37755  -0.37514  -0.37263
 Alpha  occ. eigenvalues --   -0.37219  -0.36893  -0.36404  -0.36122  -0.36021
 Alpha  occ. eigenvalues --   -0.35465  -0.35335  -0.35240  -0.35011  -0.34865
 Alpha  occ. eigenvalues --   -0.34757  -0.34624  -0.34265  -0.33961  -0.33519
 Alpha  occ. eigenvalues --   -0.33006  -0.32824  -0.32416  -0.32124  -0.31814
 Alpha  occ. eigenvalues --   -0.31412  -0.31229  -0.30800  -0.30193  -0.29959
 Alpha  occ. eigenvalues --   -0.29753  -0.28797  -0.28603  -0.28046  -0.27995
 Alpha  occ. eigenvalues --   -0.27729  -0.27344  -0.26541  -0.26409  -0.25939
 Alpha  occ. eigenvalues --   -0.25429
 Alpha virt. eigenvalues --   -0.19804  -0.17679  -0.17033  -0.16416  -0.15861
 Alpha virt. eigenvalues --   -0.15518  -0.15111  -0.14609  -0.14341  -0.13804
 Alpha virt. eigenvalues --   -0.13678  -0.13122  -0.12984  -0.12757  -0.12457

 Mulliken charges:
               1
     1  Mo  -0.216115
     2  S    0.227584
     3  S    0.093567
     4  S    0.220161
     5  S    0.043324
     6  Mo  -0.251916
     7  S    0.109233
     8  S    0.433399
     9  Mo  -0.699785
    10  S    0.133501
    11  S   -0.041829
    12  Mo   0.251135
    13  Mo  -0.444704
    14  S   -0.028391
    15  S   -0.169070
    16  S    0.013262
    17  S   -0.006898
    18  Mo   0.276655
    19  S   -0.185756
    20  S   -0.008414
    21  Mo   0.230976
    22  S   -0.208119
    23  S   -0.039001
    24  Mo   0.231696
    25  S   -0.081555
    26  H   -0.002594
    27  S    0.097296
    28  H    0.022357
 Sum of Mulliken charges =  -0.00000

 Dipole moment (field-independent basis, Debye):
    X=             -2.2797    Y=             -0.0259    Z=             -1.1648  Tot=              2.5602
 Quadrupole moment (field-independent basis, Debye-Ang):
   XX=           -435.7393   YY=           -423.0834   ZZ=           -452.6556
   XY=              1.7019   XZ=            -26.0122   YZ=             -1.0344

  Exact polarizability:    1015.093     -84.831     523.360      97.702    -163.163     767.944
 Approx polarizability:    2820.028     -89.976    1640.842      74.946    -383.544    2420.423

 ******    1 imaginary frequencies (negative Signs) ******

                      1                      2                      3
                      A                      A                      A
 Frequencies --  -1432.1088                30.8964                36.9084
 Red. masses --      1.0642                35.6330                40.0264
 Frc consts  --      1.2859                 0.0200                 0.0321
 IR Inten    --    876.6154                 0.1074                 0.0128

                      4                      5                      6
                      A                      A                      A
 Frequencies --     44.1479                57.8593                59.9968
 Red. masses --     26.4494                26.8140                24.1844
 Frc consts  --      0.0304                 0.0529                 0.0513
 IR Inten    --      0.3189                 0.3980                 0.1562

                      7                      8                      9
                      A                      A                      A
 Frequencies --     67.1103                74.4919                78.1934
 Red. masses --     22.4052                35.0679                39.0258
 Frc consts  --      0.0595                 0.1147                 0.1406
 IR Inten    --      0.0623                 0.2330                 0.2619

                     10                     11                     12
                      A                      A                      A
 Frequencies --     81.1235                84.5703                89.3722
 Red. masses --     36.4651                26.4415                38.9714
 Frc consts  --      0.1414                 0.1114                 0.1834
 IR Inten    --      1.4859                 0.2654                 0.8807

                     13                     14                     15
                      A                      A                      A
 Frequencies --     91.3352                94.5045                98.9052
 Red. masses --     38.6324                37.2433                36.9901
 Frc consts  --      0.1899                 0.1960                 0.2132
 IR Inten    --      0.4152                 0.9775                 3.2338

                     16                     17                     18
                      A                      A                      A
 Frequencies --    109.1021               111.6924               118.1953
 Red. masses --     37.5742                35.1643                39.6297
 Frc consts  --      0.2635                 0.2585                 0.3262
 IR Inten    --      0.6273                 1.7110                 0.2361

                     19                     20                     21
                      A                      A                      A
 Frequencies --    125.8998               131.2412               133.3288
 Red. masses --     40.8777                37.9277                36.1509
 Frc consts  --      0.3818                 0.3849                 0.3786
 IR Inten    --      0.2603                 0.3999                 0.8450

                     22                     23                     24
                      A                      A                      A
 Frequencies --    139.1395               145.9712               150.5470
 Red. masses --     41.9780                41.4000                40.3094
 Frc consts  --      0.4788                 0.5197                 0.5383
 IR Inten    --      0.2235                 0.5266                 2.1034

                     25                     26                     27
                      A                      A                      A
 Frequencies --    152.3290               159.2055               165.8617
 Red. masses --     47.5820                35.0743                46.8970
 Frc consts  --      0.6505                 0.5238                 0.7601
 IR Inten    --      0.6194                 0.7568                 0.0879

                     28                     29                     30
                      A                      A                      A
 Frequencies --    166.2976               172.1961               176.0546
 Red. masses --     36.2306                27.5033                21.6396
 Frc consts  --      0.5903                 0.4805                 0.3952
 IR Inten    --      0.5030                 2.0459                 2.3177

                     31                     32                     33
                      A                      A                      A
 Frequencies --    178.1663               186.9850               191.0608
 Red. masses --     31.1213                38.7147                35.7065
 Frc consts  --      0.5820                 0.7975                 0.7680
 IR Inten    --      0.9999                 2.7465                 1.5729

                     34                     35                     36
                      A                      A                      A
 Frequencies --    201.6558               206.1247               209.9070
 Red. masses --     40.3403                47.4771                47.1350
 Frc consts  --      0.9665                 1.1885                 1.2236
 IR Inten    --      2.3304                 0.9458                 2.1656

                     37                     38                     39
                      A                      A                      A
 Frequencies --    213.0895               218.8242               226.9775
 Red. masses --     43.9520                33.6686                36.3380
 Frc consts  --      1.1759                 0.9499                 1.1030
 IR Inten    --      0.1038                 2.5581                 2.0778

                     40                     41                     42
                      A                      A                      A
 Frequencies --    241.1436               244.1662               260.6862
 Red. masses --     37.2909                35.8116                37.3417
 Frc consts  --      1.2776                 1.2579                 1.4951
 IR Inten    --      4.2400                11.1680                 1.4842

                     43                     44                     45
                      A                      A                      A
 Frequencies --    265.4776               272.6846               277.4585
 Red. masses --     36.9685                37.9707                42.4304
 Frc consts  --      1.5351                 1.6635                 1.9245
 IR Inten    --      6.9461                 2.0182                15.8076

                     46                     47                     48
                      A                      A                      A
 Frequencies --    289.2980               296.6429               301.4625
 Red. masses --     34.9316                33.6233                36.9298
 Frc consts  --      1.7225                 1.7432                 1.9774
 IR Inten    --      5.1508                 3.3409                 3.4087

                     49                     50                     51
                      A                      A                      A
 Frequencies --    309.5857               312.2089               318.6357
 Red. masses --     32.9434                36.2409                37.9463
 Frc consts  --      1.8603                 2.0813                 2.2699
 IR Inten    --      0.1622                 2.3373                 5.5256

                     52                     53                     54
                      A                      A                      A
 Frequencies --    326.5546               334.9591               344.2306
 Red. masses --     28.2513                18.0782                40.2820
 Frc consts  --      1.7750                 1.1951                 2.8123
 IR Inten    --      3.9877                 3.8759                 8.9768

                     55                     56                     57
                      A                      A                      A
 Frequencies --    357.4217               399.6544               410.1098
 Red. masses --     40.0426                34.4804                30.1462
 Frc consts  --      3.0139                 3.2448                 2.9873
 IR Inten    --      4.5529                 5.6609                 5.6759

                     58                     59                     60
                      A                      A                      A
 Frequencies --    418.8628               420.3120               426.1105
 Red. masses --     34.0402                27.9566                38.3586
 Frc consts  --      3.5187                 2.9099                 4.1035
 IR Inten    --      8.5660                 7.2047                23.9714

                     61                     62                     63
                      A                      A                      A
 Frequencies --    427.6196               435.4206               439.1723
 Red. masses --     32.8559                18.6087                38.7585
 Frc consts  --      3.5398                 2.0787                 4.4044
 IR Inten    --      1.3270                 3.5492                 1.6855

                     64                     65                     66
                      A                      A                      A
 Frequencies --    446.8038               447.4692               453.7438
 Red. masses --     37.4320                40.2226                16.0313
 Frc consts  --      4.4028                 4.7451                 1.9446
 IR Inten    --      2.3393                60.0580                 5.5974

                     67                     68                     69
                      A                      A                      A
 Frequencies --    464.9383               471.8254               481.2822
 Red. masses --     20.3645                11.0809                 2.6387
 Frc consts  --      2.5937                 1.4534                 0.3601
 IR Inten    --     14.5079                 5.5238                 2.9423

                     70                     71                     72
                      A                      A                      A
 Frequencies --    488.7422               499.4732               566.3408
 Red. masses --      3.1287                14.7907                39.8874
 Frc consts  --      0.4403                 2.1740                 7.5377
 IR Inten    --      6.0543                74.0166               205.4627

                     73                     74                     75
                      A                      A                      A
 Frequencies --    569.8407               573.8369               988.6851
 Red. masses --     39.4673                39.4555                 1.0449
 Frc consts  --      7.5508                 7.6548                 0.6018
 IR Inten    --     50.2950               163.1044                45.6409

                     76                     77                     78
                      A                      A                      A
 Frequencies --   1018.9785              1244.8746              1405.8623
 Red. masses --      1.0153                 1.0228                 1.0228
 Frc consts  --      0.6211                 0.9339                 1.1911
 IR Inten    --      0.9905                30.6031                 3.1519

 - Thermochemistry -
 -------------------
 Temperature   298.150 Kelvin.  Pressure   1.00000 Atm.
 Atom     1 has atomic number 42 and mass  97.90550

 Molecular mass:  1360.75694 amu.
 Principal axes and moments of inertia in atomic units:
                           1         2         3
     Eigenvalues --  ******************************
           X            0.83326  -0.54838   0.07043
           Y           -0.29266  -0.32940   0.89769
           Z            0.46907   0.76862   0.43496
 This molecule is an asymmetric top.
 Rotational symmetry number  1.
 Warning -- assumption of classical behavior for rotation
           may cause significant error
 Rotational temperatures (Kelvin)      0.00336     0.00158     0.00122
 Rotational constants (GHZ):           0.06991     0.03302     0.02550
    1 imaginary frequencies ignored.
 Zero-point vibrational energy     138957.3 (Joules/Mol)
                                   33.21159 (Kcal/Mol)
 Warning -- explicit consideration of  73 degrees of freedom as
           vibrations may cause significant error
 Vibrational temperatures:     44.45    53.10    63.52    83.25    86.32
          (Kelvin)             96.56   107.18   112.50   116.72   121.68
                              128.59   131.41   135.97   142.30   156.97
                              160.70   170.06   181.14   188.83   191.83
                              200.19   210.02   216.60   219.17   229.06
                              238.64   239.27   247.75   253.30   256.34
                              269.03   274.89   290.14   296.57   302.01
                              306.59   314.84   326.57   346.95   351.30
                              375.07   381.96   392.33   399.20   416.24
                              426.80   433.74   445.42   449.20   458.45
                              469.84   481.93   495.27   514.25   575.01
                              590.06   602.65   604.74   613.08   615.25
                              626.47   631.87   642.85   643.81   652.84
                              668.94   678.85   692.46   703.19   718.63
                              814.84   819.87   825.62  1422.50  1466.08
                             1791.10  2022.72

 Zero-point correction=                           0.052926 (Hartree/Particle)
 Thermal correction to Energy=                    0.093415
 Thermal correction to Enthalpy=                  0.094359
 Thermal correction to Gibbs Free Energy=        -0.022185
 Sum of electronic and zero-point Energies=          -7709.774698
 Sum of electronic and thermal Energies=             -7709.734209
 Sum of electronic and thermal Enthalpies=           -7709.733265
 Sum of electronic and thermal Free Energies=        -7709.849809

                     E (Thermal)             CV                S
                      KCal/Mol        Cal/Mol-Kelvin    Cal/Mol-Kelvin
 Total                   58.619            131.686            245.287
 Electronic               0.000              0.000              0.000
 Translational            0.889              2.981             47.500
 Rotational               0.889              2.981             39.832
 Vibrational             56.841            125.724            157.955
 Vibration     1          0.594              1.984              5.771
 Vibration     2          0.594              1.982              5.418
 Vibration     3          0.595              1.980              5.064
 Vibration     4          0.596              1.974              4.529
 Vibration     5          0.597              1.973              4.457
 Vibration     6          0.598              1.970              4.236
 Vibration     7          0.599              1.966              4.031
 Vibration     8          0.599              1.964              3.936
 Vibration     9          0.600              1.962              3.864
 Vibration    10          0.601              1.960              3.782
 Vibration    11          0.602              1.957              3.674
 Vibration    12          0.602              1.955              3.631
 Vibration    13          0.603              1.953              3.565
 Vibration    14          0.604              1.950              3.476
 Vibration    15          0.606              1.942              3.285
 Vibration    16          0.607              1.940              3.239
 Vibration    17          0.608              1.934              3.130
 Vibration    18          0.611              1.927              3.008
 Vibration    19          0.612              1.922              2.928
 Vibration    20          0.613              1.920              2.897
 Vibration    21          0.615              1.914              2.816
 Vibration    22          0.617              1.907              2.724
 Vibration    23          0.618              1.902              2.665
 Vibration    24          0.619              1.900              2.643
 Vibration    25          0.621              1.892              2.559
 Vibration    26          0.624              1.884              2.482
 Vibration    27          0.624              1.884              2.477
 Vibration    28          0.626              1.877              2.411
 Vibration    29          0.628              1.872              2.370
 Vibration    30          0.629              1.869              2.348
 Vibration    31          0.632              1.858              2.258
 Vibration    32          0.634              1.852              2.218
 Vibration    33          0.639              1.838              2.118
 Vibration    34          0.641              1.831              2.078
 Vibration    35          0.642              1.826              2.044
 Vibration    36          0.644              1.821              2.017
 Vibration    37          0.647              1.812              1.969
 Vibration    38          0.651              1.800              1.903
 Vibration    39          0.658              1.777              1.794
 Vibration    40          0.659              1.772              1.772
 Vibration    41          0.669              1.745              1.657
 Vibration    42          0.671              1.736              1.625
 Vibration    43          0.676              1.724              1.579
 Vibration    44          0.678              1.715              1.549
 Vibration    45          0.686              1.694              1.478
 Vibration    46          0.690              1.680              1.436
 Vibration    47          0.693              1.671              1.409
 Vibration    48          0.699              1.655              1.365
 Vibration    49          0.701              1.650              1.351
 Vibration    50          0.705              1.638              1.317
 Vibration    51          0.710              1.622              1.277
 Vibration    52          0.716              1.606              1.236
 Vibration    53          0.723              1.587              1.192
 Vibration    54          0.733              1.560              1.133
 Vibration    55          0.766              1.471              0.964
 Vibration    56          0.774              1.448              0.926
 Vibration    57          0.782              1.429              0.896
 Vibration    58          0.783              1.426              0.891
 Vibration    59          0.788              1.413              0.871
 Vibration    60          0.789              1.410              0.866
 Vibration    61          0.796              1.393              0.841
 Vibration    62          0.799              1.385              0.829
 Vibration    63          0.806              1.368              0.805
 Vibration    64          0.807              1.366              0.803
 Vibration    65          0.812              1.353              0.785
 Vibration    66          0.822              1.328              0.752
 Vibration    67          0.829              1.313              0.732
 Vibration    68          0.838              1.292              0.707
 Vibration    69          0.845              1.275              0.687
 Vibration    70          0.855              1.251              0.659
 Vibration    71          0.922              1.104              0.511
 Vibration    72          0.926              1.096              0.505
 Vibration    73          0.930              1.088              0.497

                           ! Non-Optimized Parameters !
 Normal termination of Gaussian 16 at Sat Dec 10 12:52:23 2022.
