 Gaussian 16, Revision C.01,
 Gaussian 16:  ES64L-G16RevC.01  3-Jul-2019

 ---------------------------------------
 # opt freq b3lyp/gen nosymm pseudo=read
 ---------------------------------------

 -------------------
 Title Card Required
 -------------------
 Symbolic Z-matrix:
 Charge =  0 Multiplicity = 1

 SCF Done:  E(RB3LYP) =  -7708.66575336     A.U. after   33 cycles
 SCF Done:  E(RB3LYP) =  -7708.68034725     A.U. after   21 cycles
 SCF Done:  E(RB3LYP) =  -7708.68723653     A.U. after   21 cycles
 SCF Done:  E(RB3LYP) =  -7708.68920109     A.U. after   20 cycles
 SCF Done:  E(RB3LYP) =  -7708.69001659     A.U. after   20 cycles
 SCF Done:  E(RB3LYP) =  -7708.69076925     A.U. after   20 cycles
 SCF Done:  E(RB3LYP) =  -7708.69189935     A.U. after   21 cycles
 SCF Done:  E(RB3LYP) =  -7708.69322598     A.U. after   22 cycles
 SCF Done:  E(RB3LYP) =  -7708.69350056     A.U. after   20 cycles
 SCF Done:  E(RB3LYP) =  -7708.69403891     A.U. after   20 cycles
 SCF Done:  E(RB3LYP) =  -7708.69538851     A.U. after   20 cycles
 SCF Done:  E(RB3LYP) =  -7708.69538666     A.U. after   19 cycles
 SCF Done:  E(RB3LYP) =  -7708.69544377     A.U. after   18 cycles
 SCF Done:  E(RB3LYP) =  -7708.69544635     A.U. after   15 cycles
 SCF Done:  E(RB3LYP) =  -7708.69545793     A.U. after   18 cycles
 SCF Done:  E(RB3LYP) =  -7708.69546068     A.U. after   15 cycles
 SCF Done:  E(RB3LYP) =  -7708.69546185     A.U. after   15 cycles
 SCF Done:  E(RB3LYP) =  -7708.69546237     A.U. after   14 cycles
 SCF Done:  E(RB3LYP) =  -7708.69546282     A.U. after   14 cycles
 Optimization completed.
    -- Stationary point found.
 Normal termination of Gaussian 16 at Sat Dec 10 12:40:43 2022.

 ------------------------------------------------------------------
 #N Geom=AllCheck Guess=TCheck SCRF=Check GenChk RB3LYP/ChkBas Freq
 ------------------------------------------------------------------

 Structure from the checkpoint file:  "/home/chesagar/scratch/Gau-115308.chk"
 -------------------
 Title Card Required
 -------------------
 Charge =  0 Multiplicity = 1

                          Input orientation:
 ---------------------------------------------------------------------
 Center     Atomic      Atomic             Coordinates (Angstroms)
 Number     Number       Type             X           Y           Z
 ---------------------------------------------------------------------
      1         42           0        0.304357    2.322304   12.301744
      2         16           0        1.228785    4.212934   11.670446
      3         16           0       -1.641886    2.937362   13.365509
      4         16           0       -0.463673    1.212201   10.306550
      5         16           0        1.899658    0.254114   12.138555
      6         42           0       -2.161871    2.724062   11.091351
      7         16           0       -3.133208    1.763274    8.813558
      8         16           0       -1.684932    4.917170   10.478335
      9         42           0        0.107116    3.414601    9.587178
     10         16           0       -0.424306    2.741818    7.262439
     11         16           0        2.416374    2.302376    9.062061
     12         42           0        3.516059    1.421312   10.809188
     13         42           0       -2.240147    4.042010    8.376302
     14         16           0        4.507654    2.890870   12.325193
     15         16           0        4.978551    0.043552   10.179383
     16         16           0       -4.565777    5.034659    8.660780
     17         16           0       -1.912655    6.103269    7.209453
     18         42           0       -4.852699    3.047217    9.625536
     19         16           0       -6.758278    2.243839    9.182027
     20         16           0       -4.481901    3.172932   11.848247
     21         42           0        3.175716    1.521648   13.645792
     22         16           0        4.334404    0.286437   14.905663
     23         16           0        1.389965    2.537501   14.589940
     24         42           0        0.048419    4.968704    6.878012
     25         16           0        0.845110    5.362394    4.951003
     26         16           0        1.358240    5.528271    8.557542
 ---------------------------------------------------------------------

 SCF Done:  E(RB3LYP) =  -7708.69546282     A.U. after    3 cycles

 Alpha  occ. eigenvalues --  -88.94913 -88.93672 -88.93670 -88.93096 -88.92788
 Alpha  occ. eigenvalues --  -88.92083 -88.91907 -88.90742 -88.90614 -88.90555
 Alpha  occ. eigenvalues --  -88.90237 -88.89958 -88.88857 -88.88821 -88.88423
 Alpha  occ. eigenvalues --  -88.88306 -88.88204 -88.88094  -8.02308  -8.01166
 Alpha  occ. eigenvalues --   -8.01094  -8.00607  -8.00312  -7.99705  -7.99548
 Alpha  occ. eigenvalues --   -7.98482  -7.98329  -7.98252  -7.97934  -7.97847
 Alpha  occ. eigenvalues --   -7.96688  -7.96618  -7.96392  -7.96036  -7.96020
 Alpha  occ. eigenvalues --   -7.95984  -5.98319  -5.98294  -5.98217  -5.97224
 Alpha  occ. eigenvalues --   -5.97174  -5.97145  -5.97055  -5.97022  -5.96962
 Alpha  occ. eigenvalues --   -5.96634  -5.96587  -5.96490  -5.96357  -5.96273
 Alpha  occ. eigenvalues --   -5.96187  -5.95748  -5.95641  -5.95599  -5.95589
 Alpha  occ. eigenvalues --   -5.95468  -5.95444  -5.94561  -5.94427  -5.94419
 Alpha  occ. eigenvalues --   -5.94316  -5.94310  -5.94272  -5.94171  -5.94137
 Alpha  occ. eigenvalues --   -5.94118  -5.94043  -5.93890  -5.93834  -5.93780
 Alpha  occ. eigenvalues --   -5.93737  -5.93724  -5.92698  -5.92681  -5.92615
 Alpha  occ. eigenvalues --   -5.92567  -5.92549  -5.92470  -5.92400  -5.92362
 Alpha  occ. eigenvalues --   -5.92204  -5.92090  -5.92050  -5.92020  -5.92009
 Alpha  occ. eigenvalues --   -5.91999  -5.91957  -5.91875  -5.91838  -5.91785
 Alpha  occ. eigenvalues --   -2.58924  -2.58328  -2.58028  -2.57876  -2.57136
 Alpha  occ. eigenvalues --   -2.56720  -2.56029  -2.55861  -1.61820  -1.61363
 Alpha  occ. eigenvalues --   -1.61345  -1.61203  -1.61096  -1.60910  -1.60862
 Alpha  occ. eigenvalues --   -1.60570  -1.60331  -1.60145  -1.59897  -1.59646
 Alpha  occ. eigenvalues --   -1.59432  -1.59214  -1.59100  -1.58974  -1.58812
 Alpha  occ. eigenvalues --   -1.58724  -1.58559  -1.58449  -1.57834  -1.57688
 Alpha  occ. eigenvalues --   -1.57441  -1.57196  -0.78611  -0.77117  -0.76271
 Alpha  occ. eigenvalues --   -0.75775  -0.74996  -0.74441  -0.74056  -0.73493
 Alpha  occ. eigenvalues --   -0.73095  -0.72447  -0.71935  -0.71599  -0.71120
 Alpha  occ. eigenvalues --   -0.71055  -0.70259  -0.69970  -0.69626  -0.69351
 Alpha  occ. eigenvalues --   -0.45881  -0.45443  -0.45062  -0.44834  -0.43740
 Alpha  occ. eigenvalues --   -0.43145  -0.42705  -0.42178  -0.41723  -0.41040
 Alpha  occ. eigenvalues --   -0.40928  -0.40574  -0.40370  -0.40215  -0.40123
 Alpha  occ. eigenvalues --   -0.39831  -0.39294  -0.39148  -0.38855  -0.38595
 Alpha  occ. eigenvalues --   -0.38164  -0.37998  -0.37889  -0.37716  -0.37446
 Alpha  occ. eigenvalues --   -0.37149  -0.36737  -0.36711  -0.36396  -0.35925
 Alpha  occ. eigenvalues --   -0.35801  -0.35492  -0.35335  -0.35171  -0.34973
 Alpha  occ. eigenvalues --   -0.34742  -0.34515  -0.33939  -0.33696  -0.33305
 Alpha  occ. eigenvalues --   -0.33089  -0.32618  -0.32458  -0.31952  -0.31557
 Alpha  occ. eigenvalues --   -0.31374  -0.30820  -0.30593  -0.30183  -0.29948
 Alpha  occ. eigenvalues --   -0.29343  -0.28789  -0.28320  -0.28111  -0.27979
 Alpha  occ. eigenvalues --   -0.27590  -0.27460  -0.26725  -0.25919  -0.25431
 Alpha virt. eigenvalues --   -0.20368  -0.17703  -0.17468  -0.16735  -0.16155
 Alpha virt. eigenvalues --   -0.15596  -0.15322  -0.14907  -0.14498  -0.14178
 Alpha virt. eigenvalues --   -0.13994  -0.13539  -0.13244  -0.12908  -0.12713

 Mulliken charges:
               1
     1  Mo  -0.240963
     2  S    0.251571
     3  S    0.109922
     4  S    0.231014
     5  S    0.036325
     6  Mo  -0.258169
     7  S    0.104028
     8  S    0.436146
     9  Mo  -0.709108
    10  S    0.175263
    11  S   -0.032190
    12  Mo   0.253881
    13  Mo  -0.415752
    14  S   -0.023328
    15  S   -0.168406
    16  S    0.015856
    17  S    0.038331
    18  Mo   0.282062
    19  S   -0.173925
    20  S   -0.012812
    21  Mo   0.236573
    22  S   -0.209321
    23  S   -0.043964
    24  Mo   0.290916
    25  S   -0.195532
    26  S    0.021582
 Sum of Mulliken charges =  -0.00000

 Dipole moment (field-independent basis, Debye):
    X=             -3.5277    Y=             -0.5356    Z=             -0.5800  Tot=              3.6150
 Quadrupole moment (field-independent basis, Debye-Ang):
   XX=           -432.6127   YY=           -423.7868   ZZ=           -440.8086
   XY=             -4.5368   XZ=            -37.7562   YZ=             -2.9882

  Exact polarizability:     987.934    -106.549     513.811     121.754    -163.330     784.192
 Approx polarizability:    2696.141    -166.203    1626.201     134.547    -379.277    2452.180

                      1                      2                      3
                      A                      A                      A
 Frequencies --     30.7093                36.5926                45.7574
 Red. masses --     40.8502                42.0700                41.2657
 Frc consts  --      0.0227                 0.0332                 0.0509
 IR Inten    --      0.1068                 0.0212                 0.1649

                      4                      5                      6
                      A                      A                      A
 Frequencies --     55.3624                58.4121                66.0549
 Red. masses --     39.0453                38.0507                38.1500
 Frc consts  --      0.0705                 0.0765                 0.0981
 IR Inten    --      0.0662                 0.1721                 0.6163

                      7                      8                      9
                      A                      A                      A
 Frequencies --     74.4262                78.2883                80.6919
 Red. masses --     39.1724                37.6349                37.5057
 Frc consts  --      0.1278                 0.1359                 0.1439
 IR Inten    --      0.6253                 1.0721                 0.4367

                     10                     11                     12
                      A                      A                      A
 Frequencies --     83.0859                89.1005                93.5587
 Red. masses --     37.3692                43.2343                40.4106
 Frc consts  --      0.1520                 0.2022                 0.2084
 IR Inten    --      0.1458                 1.8868                 1.0990

                     13                     14                     15
                      A                      A                      A
 Frequencies --     97.4628                98.0939               106.1781
 Red. masses --     40.8372                41.0068                41.2768
 Frc consts  --      0.2286                 0.2325                 0.2742
 IR Inten    --      2.0219                 0.7452                 0.3921

                     16                     17                     18
                      A                      A                      A
 Frequencies --    115.2837               122.4501               122.6982
 Red. masses --     39.6707                39.9654                46.3510
 Frc consts  --      0.3106                 0.3531                 0.4111
 IR Inten    --      1.6476                 0.6332                 0.2778

                     19                     20                     21
                      A                      A                      A
 Frequencies --    131.6896               134.0449               144.1483
 Red. masses --     42.6631                44.2511                44.0334
 Frc consts  --      0.4359                 0.4685                 0.5391
 IR Inten    --      0.2088                 0.1802                 0.2552

                     22                     23                     24
                      A                      A                      A
 Frequencies --    145.5740               147.7978               149.8352
 Red. masses --     41.3854                47.7521                50.4102
 Frc consts  --      0.5167                 0.6146                 0.6668
 IR Inten    --      0.5400                 3.5932                 0.7009

                     25                     26                     27
                      A                      A                      A
 Frequencies --    153.9133               158.6131               161.7762
 Red. masses --     46.5322                38.9783                39.4894
 Frc consts  --      0.6495                 0.5778                 0.6089
 IR Inten    --      0.6529                 0.1447                 0.2397

                     28                     29                     30
                      A                      A                      A
 Frequencies --    170.9313               174.6427               177.7538
 Red. masses --     37.2352                45.6918                40.6462
 Frc consts  --      0.6410                 0.8211                 0.7567
 IR Inten    --      1.9603                 0.8747                 2.0902

                     31                     32                     33
                      A                      A                      A
 Frequencies --    190.3096               191.3088               198.2566
 Red. masses --     42.7409                42.3684                35.3582
 Frc consts  --      0.9120                 0.9136                 0.8188
 IR Inten    --      0.2487                 3.2271                 0.5828

                     34                     35                     36
                      A                      A                      A
 Frequencies --    200.2827               208.8336               215.9058
 Red. masses --     46.4629                49.2227                37.5672
 Frc consts  --      1.0981                 1.2648                 1.0318
 IR Inten    --      3.3236                 5.8292                 4.4291

                     37                     38                     39
                      A                      A                      A
 Frequencies --    218.4844               222.6331               233.0782
 Red. masses --     47.5511                40.4963                35.3379
 Frc consts  --      1.3374                 1.1826                 1.1311
 IR Inten    --      0.2826                 0.7862                 3.2314

                     40                     41                     42
                      A                      A                      A
 Frequencies --    239.4501               246.8563               256.2562
 Red. masses --     38.2398                34.7717                38.6804
 Frc consts  --      1.2918                 1.2484                 1.4965
 IR Inten    --      4.1482                 4.4791                10.2091

                     43                     44                     45
                      A                      A                      A
 Frequencies --    262.5980               278.4608               282.7216
 Red. masses --     40.1912                39.7824                44.6035
 Frc consts  --      1.6329                 1.8175                 2.1006
 IR Inten    --      0.6284                18.9713                 7.7834

                     46                     47                     48
                      A                      A                      A
 Frequencies --    293.5171               296.7387               301.2121
 Red. masses --     35.3141                35.2161                37.0795
 Frc consts  --      1.7925                 1.8270                 1.9821
 IR Inten    --      2.2261                 2.3458                 4.8950

                     49                     50                     51
                      A                      A                      A
 Frequencies --    304.8262               319.0431               321.2663
 Red. masses --     35.3022                39.7964                39.1451
 Frc consts  --      1.9327                 2.3867                 2.3804
 IR Inten    --      4.7712                 1.6245                 0.4833

                     52                     53                     54
                      A                      A                      A
 Frequencies --    328.2364               342.6045               361.9793
 Red. masses --     41.4657                41.4112                39.8203
 Frc consts  --      2.6322                 2.8639                 3.0741
 IR Inten    --      3.1770                10.9724                 2.3803

                     55                     56                     57
                      A                      A                      A
 Frequencies --    398.9845               412.2610               420.6986
 Red. masses --     34.7615                34.8971                36.6441
 Frc consts  --      3.2603                 3.4945                 3.8212
 IR Inten    --      5.3631                 6.6730                11.9561

                     58                     59                     60
                      A                      A                      A
 Frequencies --    423.0881               426.3441               428.0779
 Red. masses --     34.6633                37.8909                33.7719
 Frc consts  --      3.6558                 4.0579                 3.6463
 IR Inten    --      6.2072                17.5210                 2.0833

                     61                     62                     63
                      A                      A                      A
 Frequencies --    435.2701               439.5311               446.7383
 Red. masses --     38.2712                39.0695                39.4083
 Frc consts  --      4.2721                 4.4470                 4.6339
 IR Inten    --      3.2993                 1.7866                39.8346

                     64                     65                     66
                      A                      A                      A
 Frequencies --    448.2266               462.1248               468.9415
 Red. masses --     39.1617                39.5839                39.0137
 Frc consts  --      4.6356                 4.9807                 5.0548
 IR Inten    --     22.5928                14.4617                 1.0328

                     67                     68                     69
                      A                      A                      A
 Frequencies --    471.4296               484.2722               562.9037
 Red. masses --     39.2951                38.9404                40.1578
 Frc consts  --      5.1454                 5.3806                 7.4970
 IR Inten    --     11.3609                 9.4315               164.7847

                     70                     71                     72
                      A                      A                      A
 Frequencies --    568.6681               569.6966               573.8348
 Red. masses --     39.8262                39.4977                39.5008
 Frc consts  --      7.5882                 7.5528                 7.6635
 IR Inten    --    217.5335                45.9292               135.5468

 - Thermochemistry -
 -------------------
 Temperature   298.150 Kelvin.  Pressure   1.00000 Atm.
 Atom     1 has atomic number 42 and mass  97.90550

 Molecular mass:  1358.74129 amu.
 Principal axes and moments of inertia in atomic units:
                           1         2         3
     Eigenvalues --  ******************************
           X            0.81529  -0.57411   0.07550
           Y           -0.30416  -0.31366   0.89950
           Z            0.49273   0.75632   0.43034
 This molecule is an asymmetric top.
 Rotational symmetry number  1.
 Warning -- assumption of classical behavior for rotation
           may cause significant error
 Rotational temperatures (Kelvin)      0.00343     0.00156     0.00122
 Rotational constants (GHZ):           0.07142     0.03258     0.02535
 Zero-point vibrational energy     108028.0 (Joules/Mol)
                                   25.81932 (Kcal/Mol)
 Warning -- explicit consideration of  72 degrees of freedom as
           vibrations may cause significant error
 Vibrational temperatures:     44.18    52.65    65.83    79.65    84.04
          (Kelvin)             95.04   107.08   112.64   116.10   119.54
                              128.20   134.61   140.23   141.14   152.77
                              165.87   176.18   176.54   189.47   192.86
                              207.40   209.45   212.65   215.58   221.45
                              228.21   232.76   245.93   251.27   255.75
                              273.81   275.25   285.25   288.16   300.46
                              310.64   314.35   320.32   335.35   344.52
                              355.17   368.70   377.82   400.64   406.77
                              422.31   426.94   433.38   438.58   459.03
                              462.23   472.26   492.93   520.81   574.05
                              593.15   605.29   608.73   613.41   615.91
                              626.26   632.39   642.76   644.90   664.89
                              674.70   678.28   696.76   809.89   818.19
                              819.67   825.62

 Zero-point correction=                           0.041146 (Hartree/Particle)
 Thermal correction to Energy=                    0.081402
 Thermal correction to Enthalpy=                  0.082346
 Thermal correction to Gibbs Free Energy=        -0.034072
 Sum of electronic and zero-point Energies=          -7708.654317
 Sum of electronic and thermal Energies=             -7708.614061
 Sum of electronic and thermal Enthalpies=           -7708.613117
 Sum of electronic and thermal Free Energies=        -7708.729535

                     E (Thermal)             CV                S
                      KCal/Mol        Cal/Mol-Kelvin    Cal/Mol-Kelvin
 Total                   51.081            129.373            245.023
 Electronic               0.000              0.000              0.000
 Translational            0.889              2.981             47.495
 Rotational               0.889              2.981             39.829
 Vibrational             49.303            123.412            157.698
 Vibration     1          0.594              1.984              5.783
 Vibration     2          0.594              1.982              5.436
 Vibration     3          0.595              1.979              4.993
 Vibration     4          0.596              1.975              4.616
 Vibration     5          0.596              1.974              4.510
 Vibration     6          0.597              1.970              4.268
 Vibration     7          0.599              1.966              4.033
 Vibration     8          0.600              1.964              3.933
 Vibration     9          0.600              1.962              3.874
 Vibration    10          0.600              1.961              3.817
 Vibration    11          0.602              1.957              3.680
 Vibration    12          0.603              1.954              3.584
 Vibration    13          0.603              1.951              3.504
 Vibration    14          0.604              1.951              3.492
 Vibration    15          0.605              1.944              3.338
 Vibration    16          0.608              1.937              3.178
 Vibration    17          0.610              1.930              3.061
 Vibration    18          0.610              1.930              3.057
 Vibration    19          0.612              1.922              2.921
 Vibration    20          0.613              1.919              2.887
 Vibration    21          0.616              1.909              2.748
 Vibration    22          0.617              1.907              2.729
 Vibration    23          0.617              1.905              2.700
 Vibration    24          0.618              1.903              2.674
 Vibration    25          0.619              1.898              2.623
 Vibration    26          0.621              1.893              2.566
 Vibration    27          0.622              1.889              2.529
 Vibration    28          0.626              1.878              2.425
 Vibration    29          0.627              1.874              2.385
 Vibration    30          0.628              1.870              2.352
 Vibration    31          0.634              1.853              2.225
 Vibration    32          0.634              1.852              2.215
 Vibration    33          0.637              1.842              2.149
 Vibration    34          0.638              1.839              2.130
 Vibration    35          0.642              1.827              2.054
 Vibration    36          0.645              1.817              1.993
 Vibration    37          0.646              1.813              1.972
 Vibration    38          0.648              1.807              1.938
 Vibration    39          0.654              1.790              1.855
 Vibration    40          0.657              1.780              1.807
 Vibration    41          0.661              1.768              1.753
 Vibration    42          0.666              1.752              1.687
 Vibration    43          0.670              1.741              1.644
 Vibration    44          0.679              1.713              1.543
 Vibration    45          0.682              1.706              1.517
 Vibration    46          0.688              1.686              1.454
 Vibration    47          0.690              1.680              1.435
 Vibration    48          0.693              1.671              1.410
 Vibration    49          0.696              1.665              1.390
 Vibration    50          0.705              1.637              1.315
 Vibration    51          0.707              1.633              1.304
 Vibration    52          0.711              1.619              1.269
 Vibration    53          0.722              1.590              1.200
 Vibration    54          0.736              1.551              1.114
 Vibration    55          0.765              1.472              0.966
 Vibration    56          0.776              1.444              0.919
 Vibration    57          0.783              1.425              0.890
 Vibration    58          0.785              1.420              0.882
 Vibration    59          0.788              1.413              0.871
 Vibration    60          0.790              1.409              0.865
 Vibration    61          0.796              1.393              0.842
 Vibration    62          0.800              1.384              0.828
 Vibration    63          0.806              1.368              0.806
 Vibration    64          0.807              1.365              0.801
 Vibration    65          0.820              1.334              0.760
 Vibration    66          0.826              1.319              0.741
 Vibration    67          0.828              1.313              0.734
 Vibration    68          0.840              1.285              0.699
 Vibration    69          0.919              1.112              0.518
 Vibration    70          0.925              1.099              0.507
 Vibration    71          0.926              1.097              0.505
 Vibration    72          0.930              1.088              0.497

                           ! Non-Optimized Parameters !
 Normal termination of Gaussian 16 at Sat Dec 10 12:48:53 2022.
