 Gaussian 16, Revision C.01,
 Gaussian 16:  ES64L-G16RevC.01  3-Jul-2019

 ---------------------------------------
 # opt freq b3lyp/gen nosymm pseudo=read
 ---------------------------------------

 -------------------
 Title Card Required
 -------------------
 Symbolic Z-matrix:
 Charge =  0 Multiplicity = 1

 SCF Done:  E(RB3LYP) =  -8116.11956238     A.U. after   41 cycles
 SCF Done:  E(RB3LYP) =  -8116.15561990     A.U. after   29 cycles
 SCF Done:  E(RB3LYP) =  -8116.19094528     A.U. after   30 cycles
 SCF Done:  E(RB3LYP) =  -8116.21837455     A.U. after   29 cycles
 SCF Done:  E(RB3LYP) =  -8116.24193954     A.U. after   31 cycles
 SCF Done:  E(RB3LYP) =  -8116.25831722     A.U. after   27 cycles
 SCF Done:  E(RB3LYP) =  -8116.26994952     A.U. after   27 cycles
 SCF Done:  E(RB3LYP) =  -8116.27682489     A.U. after   25 cycles
 SCF Done:  E(RB3LYP) =  -8116.28285856     A.U. after   28 cycles
 SCF Done:  E(RB3LYP) =  -8116.28613409     A.U. after   28 cycles
 SCF Done:  E(RB3LYP) =  -8116.32318260     A.U. after   21 cycles
 SCF Done:  E(RB3LYP) =  -8116.32319632     A.U. after   18 cycles
 SCF Done:  E(RB3LYP) =  -8116.32320495     A.U. after   19 cycles
 SCF Done:  E(RB3LYP) =  -8116.32320907     A.U. after   16 cycles
 SCF Done:  E(RB3LYP) =  -8116.32321085     A.U. after   17 cycles
 SCF Done:  E(RB3LYP) =  -8116.32321148     A.U. after   14 cycles
 SCF Done:  E(RB3LYP) =  -8116.32321201     A.U. after   16 cycles
 SCF Done:  E(RB3LYP) =  -8116.32321226     A.U. after   14 cycles
 SCF Done:  E(RB3LYP) =  -8116.32321238     A.U. after   14 cycles
 Optimization completed.
    -- Stationary point found.

 1\1\GINC-NODE14-IB\FOpt\RB3LYP\Gen\C3Mo9O3S18\CHESAGAR\10-Dec-2022\0\\
 # opt freq b3lyp/gen nosymm pseudo=read\\Title Card Required\\0,1\Mo,0
 .32399708,1.8771879793,12.0231540517\S,1.4111850532,4.0386724607,11.82
 40056497\S,-1.5650691428,2.6211502771,13.1524464799\S,-0.6162035815,1.
 0109777625,10.0229354325\S,2.1823276133,0.3021950522,11.3258422298\Mo,
 -2.2097402374,2.5603541454,10.8553757066\S,-3.4760463198,1.8715090422,
 8.8126811296\S,-1.5129590233,4.8344882261,10.6396781124\Mo,0.231046626
 5,3.3110097285,9.7735383655\S,-0.8086449964,3.0193232346,7.4111321017\

 Normal termination of Gaussian 16 at Sat Dec 10 14:39:15 2022.

 ------------------------------------------------------------------
 #N Geom=AllCheck Guess=TCheck SCRF=Check GenChk RB3LYP/ChkBas Freq
 ------------------------------------------------------------------

 Structure from the checkpoint file:  "/home/chesagar/scratch/Gau-37302.chk"
 -------------------
 Title Card Required
 -------------------
 Charge =  0 Multiplicity = 1

                          Input orientation:
 ---------------------------------------------------------------------
 Center     Atomic      Atomic             Coordinates (Angstroms)
 Number     Number       Type             X           Y           Z
 ---------------------------------------------------------------------
      1         42           0        0.323997    1.877188   12.023154
      2         16           0        1.411185    4.038672   11.824006
      3         16           0       -1.565069    2.621150   13.152446
      4         16           0       -0.616204    1.010978   10.022935
      5         16           0        2.182328    0.302195   11.325842
      6         42           0       -2.209740    2.560354   10.855376
      7         16           0       -3.476046    1.871509    8.812681
      8         16           0       -1.512959    4.834488   10.639678
      9         42           0        0.231047    3.311010    9.773538
     10         16           0       -0.808645    3.019323    7.411132
     11         16           0        2.292768    2.297554    8.760250
     12         42           0        3.093254    2.598446   11.145623
     13         42           0       -2.578073    4.210110    8.673374
     14         16           0        4.352407    2.642493   13.172205
     15         16           0        4.927155    3.758954   10.350110
     16         16           0       -4.682692    5.312348    9.014746
     17         16           0       -2.015026    6.427246    7.686667
     18         42           0       -5.063473    3.207555    9.802082
     19         16           0       -7.038785    2.556592    9.381679
     20         16           0       -4.500638    3.160293   11.941300
     21         42           0        2.955859    0.857011   13.435329
     22         16           0        3.988527   -0.776191   14.316378
     23         16           0        1.126660    1.528111   14.486025
     24         42           0       -0.200915    5.235238    7.198375
     25         16           0        0.422076    5.635467    5.218773
     26         16           0        1.380591    5.522468    8.812191
     27         42           0        3.649869    4.363411    8.362343
     28          6           0        3.887135    5.020046    6.460488
     29          6           0        5.010670    3.069086    7.636288
     30          6           0        4.633024    6.136905    8.662083
     31          8           0        4.068913    5.392108    5.385392
     32          8           0        5.742257    2.303441    7.185998
     33          8           0        5.158128    7.137090    8.876349
 ---------------------------------------------------------------------

 SCF Done:  E(RB3LYP) =  -8116.32321238     A.U. after    3 cycles

 Alpha  occ. eigenvalues --  -88.93823 -88.93573 -88.93207 -88.92579 -88.92543
 Alpha  occ. eigenvalues --  -88.91699 -88.91198 -88.90930 -88.90441 -88.90354
 Alpha  occ. eigenvalues --  -88.90328 -88.90227 -88.90117 -88.89781 -88.89364
 Alpha  occ. eigenvalues --  -88.89076 -88.88713 -88.87714 -19.26575 -19.26189
 Alpha  occ. eigenvalues --  -19.25983 -10.34369 -10.33892 -10.33605  -8.01188
 Alpha  occ. eigenvalues --   -8.00981  -8.00657  -8.00091  -8.00053  -7.99220
 Alpha  occ. eigenvalues --   -7.98827  -7.98632  -7.98106  -7.98039  -7.97885
 Alpha  occ. eigenvalues --   -7.97872  -7.97851  -7.97485  -7.97123  -7.96589
 Alpha  occ. eigenvalues --   -7.96425  -7.95589  -5.97191  -5.97175  -5.97113
 Alpha  occ. eigenvalues --   -5.97029  -5.96938  -5.96883  -5.96696  -5.96649
 Alpha  occ. eigenvalues --   -5.96530  -5.96117  -5.96070  -5.96065  -5.96049
 Alpha  occ. eigenvalues --   -5.95977  -5.95938  -5.95229  -5.95221  -5.95098
 Alpha  occ. eigenvalues --   -5.94923  -5.94810  -5.94707  -5.94646  -5.94577
 Alpha  occ. eigenvalues --   -5.94462  -5.94113  -5.94108  -5.94046  -5.94045
 Alpha  occ. eigenvalues --   -5.93990  -5.93972  -5.93971  -5.93946  -5.93883
 Alpha  occ. eigenvalues --   -5.93817  -5.93815  -5.93801  -5.93735  -5.93663
 Alpha  occ. eigenvalues --   -5.93649  -5.93545  -5.93436  -5.93325  -5.93215
 Alpha  occ. eigenvalues --   -5.93066  -5.92927  -5.92597  -5.92541  -5.92518
 Alpha  occ. eigenvalues --   -5.92466  -5.92465  -5.92209  -5.91604  -5.91540
 Alpha  occ. eigenvalues --   -5.91441  -2.58880  -2.57844  -2.56767  -2.56652
 Alpha  occ. eigenvalues --   -2.56477  -2.56251  -2.56133  -2.56017  -2.52567
 Alpha  occ. eigenvalues --   -1.61703  -1.61218  -1.60788  -1.60708  -1.60363
 Alpha  occ. eigenvalues --   -1.60299  -1.60229  -1.59790  -1.59738  -1.59588
 Alpha  occ. eigenvalues --   -1.59368  -1.59036  -1.58782  -1.58683  -1.58612
 Alpha  occ. eigenvalues --   -1.58484  -1.58224  -1.58061  -1.57756  -1.57725
 Alpha  occ. eigenvalues --   -1.57561  -1.57463  -1.57347  -1.57170  -1.55560
 Alpha  occ. eigenvalues --   -1.55062  -1.54425  -1.16801  -1.16453  -1.16298
 Alpha  occ. eigenvalues --   -0.78077  -0.76302  -0.76000  -0.75616  -0.75028
 Alpha  occ. eigenvalues --   -0.74448  -0.74133  -0.73398  -0.72948  -0.72849
 Alpha  occ. eigenvalues --   -0.72469  -0.71941  -0.71544  -0.71375  -0.71062
 Alpha  occ. eigenvalues --   -0.70910  -0.69904  -0.68970  -0.60960  -0.59218
 Alpha  occ. eigenvalues --   -0.58738  -0.50892  -0.50207  -0.49123  -0.48813
 Alpha  occ. eigenvalues --   -0.48365  -0.48326  -0.47924  -0.46616  -0.46075
 Alpha  occ. eigenvalues --   -0.45261  -0.44955  -0.44805  -0.44296  -0.43185
 Alpha  occ. eigenvalues --   -0.42928  -0.42352  -0.42070  -0.41716  -0.41456
 Alpha  occ. eigenvalues --   -0.41273  -0.40959  -0.40313  -0.39847  -0.39724
 Alpha  occ. eigenvalues --   -0.39674  -0.39499  -0.39144  -0.38735  -0.38618
 Alpha  occ. eigenvalues --   -0.38510  -0.37954  -0.37917  -0.37708  -0.37175
 Alpha  occ. eigenvalues --   -0.37043  -0.36746  -0.36647  -0.36429  -0.36171
 Alpha  occ. eigenvalues --   -0.36040  -0.35826  -0.35666  -0.35302  -0.34783
 Alpha  occ. eigenvalues --   -0.34498  -0.34307  -0.33981  -0.33891  -0.33570
 Alpha  occ. eigenvalues --   -0.33052  -0.32620  -0.32509  -0.32174  -0.31897
 Alpha  occ. eigenvalues --   -0.31758  -0.31347  -0.30719  -0.30387  -0.30099
 Alpha  occ. eigenvalues --   -0.29818  -0.29497  -0.29106  -0.28683  -0.28476
 Alpha  occ. eigenvalues --   -0.27822  -0.27370  -0.26742  -0.26119  -0.25784
 Alpha  occ. eigenvalues --   -0.25589  -0.24878  -0.24357
 Alpha virt. eigenvalues --   -0.19017  -0.17575  -0.16514  -0.16217  -0.15854
 Alpha virt. eigenvalues --   -0.15626  -0.15319  -0.15161  -0.14392  -0.14245
 Alpha virt. eigenvalues --   -0.13910  -0.13621  -0.13244  -0.12796  -0.12541

 Mulliken charges:
               1
     1  Mo  -0.236344
     2  S    0.302063
     3  S    0.091610
     4  S    0.263940
     5  S    0.108522
     6  Mo  -0.292523
     7  S    0.109635
     8  S    0.413318
     9  Mo  -0.725604
    10  S    0.132769
    11  S    0.142113
    12  Mo  -0.217659
    13  Mo  -0.363495
    14  S    0.048253
    15  S    0.084408
    16  S    0.017200
    17  S    0.040478
    18  Mo   0.283923
    19  S   -0.201423
    20  S   -0.021400
    21  Mo   0.250470
    22  S   -0.217947
    23  S   -0.045148
    24  Mo   0.357235
    25  S   -0.171002
    26  S   -0.020087
    27  Mo  -0.151059
    28  C    0.187177
    29  C    0.258906
    30  C    0.235456
    31  O   -0.222196
    32  O   -0.221287
    33  O   -0.220302
 Sum of Mulliken charges =  -0.00000

 Dipole moment (field-independent basis, Debye):
    X=             -0.8397    Y=              0.7777    Z=             -2.3448  Tot=              2.6092
 Quadrupole moment (field-independent basis, Debye-Ang):
   XX=           -491.8716   YY=           -473.3866   ZZ=           -530.4464
   XY=              5.2418   XZ=            -12.8872   YZ=              3.0732

  Exact polarizability:    1163.835     -40.394     618.656      60.589    -237.380     809.662
 Approx polarizability:    3270.145     -85.423    2001.260      65.558    -670.384    2661.620

                      1                      2                      3
                      A                      A                      A
 Frequencies --     22.6304                29.5106                44.4862
 Red. masses --     20.9157                24.0917                38.5639
 Frc consts  --      0.0063                 0.0124                 0.0450
 IR Inten    --      0.2299                 0.4246                 0.4346

                      4                      5                      6
                      A                      A                      A
 Frequencies --     49.6504                51.1915                59.0577
 Red. masses --     32.1614                28.2290                23.0557
 Frc consts  --      0.0467                 0.0436                 0.0474
 IR Inten    --      0.0498                 0.3144                 0.1330

                      7                      8                      9
                      A                      A                      A
 Frequencies --     63.1467                64.2299                69.5500
 Red. masses --     24.7492                27.3906                21.8598
 Frc consts  --      0.0581                 0.0666                 0.0623
 IR Inten    --      0.2045                 0.4577                 0.4536

                     10                     11                     12
                      A                      A                      A
 Frequencies --     77.0488                81.1190                81.4142
 Red. masses --     30.4477                26.7021                32.2391
 Frc consts  --      0.1065                 0.1035                 0.1259
 IR Inten    --      0.1255                 0.2042                 0.0097

                     13                     14                     15
                      A                      A                      A
 Frequencies --     85.5639                89.0690                92.1712
 Red. masses --     30.6886                31.7034                29.3367
 Frc consts  --      0.1324                 0.1482                 0.1468
 IR Inten    --      0.6995                 0.9410                 0.3349

                     16                     17                     18
                      A                      A                      A
 Frequencies --     94.1934                96.3369                99.5084
 Red. masses --     36.9528                28.1852                22.9549
 Frc consts  --      0.1932                 0.1541                 0.1339
 IR Inten    --      1.1754                 1.9593                 0.6218

                     19                     20                     21
                      A                      A                      A
 Frequencies --    109.8989               110.9198               116.3368
 Red. masses --     31.9652                38.6591                33.9023
 Frc consts  --      0.2275                 0.2802                 0.2703
 IR Inten    --      0.5900                 0.3979                 2.5815

                     22                     23                     24
                      A                      A                      A
 Frequencies --    120.1164               125.1559               129.2829
 Red. masses --     39.3564                34.5168                44.6729
 Frc consts  --      0.3346                 0.3186                 0.4399
 IR Inten    --      0.8779                 0.6064                 0.3894

                     25                     26                     27
                      A                      A                      A
 Frequencies --    136.3058               138.2658               141.6237
 Red. masses --     46.9292                40.8076                49.4195
 Frc consts  --      0.5137                 0.4596                 0.5840
 IR Inten    --      3.6499                 2.1938                 1.2312

                     28                     29                     30
                      A                      A                      A
 Frequencies --    146.5108               147.1385               149.6620
 Red. masses --     41.2175                44.5545                43.5210
 Frc consts  --      0.5213                 0.5683                 0.5743
 IR Inten    --      2.2806                 2.9050                 0.7145

                     31                     32                     33
                      A                      A                      A
 Frequencies --    153.4650               157.2625               162.5935
 Red. masses --     43.2138                40.3263                51.2625
 Frc consts  --      0.5996                 0.5876                 0.7985
 IR Inten    --      0.1182                 0.2041                 1.0038

                     34                     35                     36
                      A                      A                      A
 Frequencies --    166.6245               176.0469               186.9873
 Red. masses --     46.6289                44.1387                53.1274
 Frc consts  --      0.7628                 0.8060                 1.0944
 IR Inten    --      0.0324                 0.3004                 8.5712

                     37                     38                     39
                      A                      A                      A
 Frequencies --    189.7665               195.9677               196.8493
 Red. masses --     43.7312                50.4171                45.8256
 Frc consts  --      0.9279                 1.1408                 1.0462
 IR Inten    --      6.6957                 2.2771                 2.6828

                     40                     41                     42
                      A                      A                      A
 Frequencies --    206.8719               210.8420               217.5263
 Red. masses --     38.2653                35.8774                38.9194
 Frc consts  --      0.9648                 0.9397                 1.0850
 IR Inten    --      2.0587                 1.5789                 3.2044

                     43                     44                     45
                      A                      A                      A
 Frequencies --    224.3149               227.2177               230.2161
 Red. masses --     38.5474                41.1289                38.0486
 Frc consts  --      1.1428                 1.2511                 1.1881
 IR Inten    --      0.8342                 1.4308                 0.3804

                     46                     47                     48
                      A                      A                      A
 Frequencies --    241.6455               247.2037               254.4668
 Red. masses --     36.3039                36.1618                39.4813
 Frc consts  --      1.2490                 1.3020                 1.5063
 IR Inten    --      1.5421                 6.0527                 2.4164

                     49                     50                     51
                      A                      A                      A
 Frequencies --    260.9333               264.1562               270.3135
 Red. masses --     38.6037                35.4092                37.2326
 Frc consts  --      1.5486                 1.4558                 1.6029
 IR Inten    --      0.2258                 3.0527                 0.1653

                     52                     53                     54
                      A                      A                      A
 Frequencies --    278.4833               284.5804               287.1182
 Red. masses --     38.5060                36.2080                40.2462
 Frc consts  --      1.7595                 1.7277                 1.9548
 IR Inten    --      1.1407                 8.0935                 0.4613

                     55                     56                     57
                      A                      A                      A
 Frequencies --    297.7696               301.5617               306.6385
 Red. masses --     35.9500                39.7406                37.0102
 Frc consts  --      1.8781                 2.1293                 2.0503
 IR Inten    --      1.8682                 1.6782                 1.6723

                     58                     59                     60
                      A                      A                      A
 Frequencies --    312.1848               317.6767               328.6252
 Red. masses --     33.9659                34.5445                37.7820
 Frc consts  --      1.9504                 2.0540                 2.4040
 IR Inten    --      3.9129                 8.2881                 2.1452

                     61                     62                     63
                      A                      A                      A
 Frequencies --    331.9612               334.2863               346.9483
 Red. masses --     29.0051                38.7283                37.1865
 Frc consts  --      1.8832                 2.5499                 2.6373
 IR Inten    --     28.1902                 7.1661                 2.0963

                     64                     65                     66
                      A                      A                      A
 Frequencies --    356.9495               368.7561               386.9379
 Red. masses --     38.8298                33.2682                16.7953
 Frc consts  --      2.9149                 2.6654                 1.4816
 IR Inten    --      1.8444                26.1408                 8.7831

                     67                     68                     69
                      A                      A                      A
 Frequencies --    401.0850               406.7267               410.9475
 Red. masses --     17.6225                21.2659                31.9885
 Frc consts  --      1.6703                 2.0727                 3.1829
 IR Inten    --     12.9742                 6.2181                 4.3429

                     70                     71                     72
                      A                      A                      A
 Frequencies --    419.9584               422.0191               424.9044
 Red. masses --     34.7029                24.2302                27.9150
 Frc consts  --      3.6060                 2.5426                 2.9694
 IR Inten    --      1.3166                 5.5156                 1.5343

                     73                     74                     75
                      A                      A                      A
 Frequencies --    428.9248               430.2357               431.3714
 Red. masses --     33.1337                21.5388                20.4629
 Frc consts  --      3.5916                 2.3490                 2.2435
 IR Inten    --      9.3796                 2.3124                 3.5501

                     76                     77                     78
                      A                      A                      A
 Frequencies --    436.6084               437.8342               445.9209
 Red. masses --     14.0989                27.2583                38.1023
 Frc consts  --      1.5835                 3.0787                 4.4639
 IR Inten    --      5.7813                 1.7820                 3.9357

                     79                     80                     81
                      A                      A                      A
 Frequencies --    451.2469               456.4072               464.3345
 Red. masses --     38.2707                37.3629                14.7334
 Frc consts  --      4.5914                 4.5856                 1.8716
 IR Inten    --      1.0981                 6.8829                26.7061

                     82                     83                     84
                      A                      A                      A
 Frequencies --    471.3743               473.6798               479.3679
 Red. masses --     38.3180                39.2725                39.3865
 Frc consts  --      5.0163                 5.1917                 5.3326
 IR Inten    --      4.8887                22.5017                11.4251

                     85                     86                     87
                      A                      A                      A
 Frequencies --    518.2538               555.0451               559.4726
 Red. masses --     13.6592                12.6670                39.5036
 Frc consts  --      2.1615                 2.2992                 7.2852
 IR Inten    --      9.7169                 5.0156               222.7248

                     88                     89                     90
                      A                      A                      A
 Frequencies --    563.0017               566.6932               568.8805
 Red. masses --     39.8396                35.8025                14.7863
 Frc consts  --      7.4402                 6.7742                 2.8194
 IR Inten    --    182.0985                63.1962                60.4086

                     91                     92                     93
                      A                      A                      A
 Frequencies --   2063.3654              2074.5164              2118.8249
 Red. masses --     13.3919                13.4088                13.3662
 Frc consts  --     33.5927                33.9995                35.3548
 IR Inten    --    364.6891               857.1249              2049.6820

 - Thermochemistry -
 -------------------
 Temperature   298.150 Kelvin.  Pressure   1.00000 Atm.
 Atom     1 has atomic number 42 and mass  97.90550

 Molecular mass:  1540.63154 amu.
 Principal axes and moments of inertia in atomic units:
                           1         2         3
     Eigenvalues --  ******************************
           X            0.95452  -0.29814  -0.00309
           Y           -0.16478  -0.53614   0.82789
           Z            0.24848   0.78973   0.56088
 This molecule is an asymmetric top.
 Rotational symmetry number  1.
 Warning -- assumption of classical behavior for rotation
           may cause significant error
 Rotational temperatures (Kelvin)      0.00228     0.00147     0.00099
 Rotational constants (GHZ):           0.04751     0.03061     0.02061
 Zero-point vibrational energy     176950.7 (Joules/Mol)
                                   42.29223 (Kcal/Mol)
 Warning -- explicit consideration of  90 degrees of freedom as
           vibrations may cause significant error
 Vibrational temperatures:     32.56    42.46    64.01    71.44    73.65
          (Kelvin)             84.97    90.85    92.41   100.07   110.86
                              116.71   117.14   123.11   128.15   132.61
                              135.52   138.61   143.17   158.12   159.59
                              167.38   172.82   180.07   186.01   196.11
                              198.93   203.76   210.80   211.70   215.33
                              220.80   226.27   233.94   239.74   253.29
                              269.03   273.03   281.95   283.22   297.64
                              303.35   312.97   322.74   326.92   331.23
                              347.67   355.67   366.12   375.42   380.06
                              388.92   400.68   409.45   413.10   428.42
                              433.88   441.18   449.16   457.07   472.82
                              477.62   480.96   499.18   513.57   530.56
                              556.72   577.07   585.19   591.26   604.23
                              607.19   611.34   617.13   619.01   620.65
                              628.18   629.95   641.58   649.24   656.67
                              668.07   678.20   681.52   689.70   745.65
                              798.59   804.96   810.03   815.35   818.49
                             2968.72  2984.77  3048.52

 Zero-point correction=                           0.067397 (Hartree/Particle)
 Thermal correction to Energy=                    0.116097
 Thermal correction to Enthalpy=                  0.117041
 Thermal correction to Gibbs Free Energy=        -0.017123
 Sum of electronic and zero-point Energies=          -8116.255815
 Sum of electronic and thermal Energies=             -8116.207116
 Sum of electronic and thermal Enthalpies=           -8116.206172
 Sum of electronic and thermal Free Energies=        -8116.340335

                     E (Thermal)             CV                S
                      KCal/Mol        Cal/Mol-Kelvin    Cal/Mol-Kelvin
 Total                   72.852            158.813            282.371
 Electronic               0.000              0.000              0.000
 Translational            0.889              2.981             47.870
 Rotational               0.889              2.981             40.502
 Vibrational             71.074            152.851            193.999
 Vibration     1          0.593              1.985              6.389
 Vibration     2          0.593              1.984              5.862
 Vibration     3          0.595              1.980              5.049
 Vibration     4          0.595              1.978              4.831
 Vibration     5          0.595              1.977              4.771
 Vibration     6          0.596              1.974              4.488
 Vibration     7          0.597              1.972              4.356
 Vibration     8          0.597              1.971              4.323
 Vibration     9          0.598              1.969              4.166
 Vibration    10          0.599              1.964              3.965
 Vibration    11          0.600              1.962              3.864
 Vibration    12          0.600              1.962              3.856
 Vibration    13          0.601              1.959              3.759
 Vibration    14          0.602              1.957              3.680
 Vibration    15          0.602              1.955              3.613
 Vibration    16          0.603              1.953              3.571
 Vibration    17          0.603              1.952              3.527
 Vibration    18          0.604              1.949              3.464
 Vibration    19          0.606              1.941              3.271
 Vibration    20          0.607              1.940              3.253
 Vibration    21          0.608              1.936              3.160
 Vibration    22          0.609              1.932              3.098
 Vibration    23          0.610              1.928              3.019
 Vibration    24          0.612              1.924              2.957
 Vibration    25          0.614              1.917              2.855
 Vibration    26          0.614              1.915              2.828
 Vibration    27          0.615              1.912              2.782
 Vibration    28          0.617              1.906              2.717
 Vibration    29          0.617              1.906              2.709
 Vibration    30          0.618              1.903              2.677
 Vibration    31          0.619              1.899              2.629
 Vibration    32          0.621              1.895              2.582
 Vibration    33          0.623              1.888              2.519
 Vibration    34          0.624              1.884              2.473
 Vibration    35          0.628              1.872              2.370
 Vibration    36          0.632              1.858              2.257
 Vibration    37          0.633              1.854              2.230
 Vibration    38          0.636              1.846              2.171
 Vibration    39          0.636              1.844              2.162
 Vibration    40          0.641              1.830              2.071
 Vibration    41          0.643              1.824              2.036
 Vibration    42          0.646              1.814              1.980
 Vibration    43          0.649              1.804              1.924
 Vibration    44          0.651              1.800              1.901
 Vibration    45          0.652              1.795              1.877
 Vibration    46          0.658              1.777              1.791
 Vibration    47          0.661              1.767              1.750
 Vibration    48          0.665              1.755              1.699
 Vibration    49          0.669              1.744              1.656
 Vibration    50          0.671              1.739              1.634
 Vibration    51          0.674              1.728              1.594
 Vibration    52          0.679              1.713              1.543
 Vibration    53          0.683              1.702              1.506
 Vibration    54          0.684              1.698              1.491
 Vibration    55          0.691              1.678              1.429
 Vibration    56          0.694              1.671              1.408
 Vibration    57          0.697              1.661              1.380
 Vibration    58          0.701              1.650              1.351
 Vibration    59          0.704              1.640              1.322
 Vibration    60          0.712              1.618              1.267
 Vibration    61          0.714              1.612              1.251
 Vibration    62          0.716              1.607              1.239
 Vibration    63          0.725              1.581              1.180
 Vibration    64          0.732              1.561              1.135
 Vibration    65          0.741              1.536              1.085
 Vibration    66          0.755              1.498              1.012
 Vibration    67          0.767              1.468              0.959
 Vibration    68          0.771              1.456              0.938
 Vibration    69          0.775              1.446              0.923
 Vibration    70          0.783              1.427              0.892
 Vibration    71          0.784              1.422              0.885
 Vibration    72          0.787              1.416              0.875
 Vibration    73          0.790              1.407              0.862
 Vibration    74          0.791              1.404              0.858
 Vibration    75          0.792              1.402              0.854
 Vibration    76          0.797              1.390              0.837
 Vibration    77          0.798              1.388              0.833
 Vibration    78          0.805              1.370              0.808
 Vibration    79          0.810              1.358              0.792
 Vibration    80          0.815              1.347              0.777
 Vibration    81          0.822              1.329              0.754
 Vibration    82          0.828              1.314              0.734
 Vibration    83          0.830              1.308              0.727
 Vibration    84          0.836              1.296              0.712
 Vibration    85          0.873              1.210              0.614
 Vibration    86          0.910              1.129              0.534
 Vibration    87          0.915              1.119              0.525
 Vibration    88          0.919              1.111              0.518
 Vibration    89          0.923              1.103              0.511
 Vibration    90          0.925              1.099              0.506

                           ! Non-Optimized Parameters !

 1\1\GINC-NODE14-IB\Freq\RB3LYP\Gen\C3Mo9O3S18\CHESAGAR\10-Dec-2022\0\\
 #N Geom=AllCheck Guess=TCheck SCRF=Check GenChk RB3LYP/ChkBas Freq\\Ti
 tle Card Required\\0,1\Mo,0.32399708,1.8771879793,12.0231540517\S,1.41
 11850532,4.0386724607,11.8240056497\S,-1.5650691428,2.6211502771,13.15
 24464799\S,-0.6162035815,1.0109777625,10.0229354325\S,2.1823276133,0.3
 021950522,11.3258422298\Mo,-2.2097402374,2.5603541454,10.8553757066\S,
 -3.4760463198,1.8715090422,8.8126811296\S,-1.5129590233,4.8344882261,1
 0.6396781124\Mo,0.2310466265,3.3110097285,9.7735383655\S,-0.8086449964

 Normal termination of Gaussian 16 at Sat Dec 10 14:53:54 2022.
