 Gaussian 16, Revision C.01,
 Gaussian 16:  ES64L-G16RevC.01  3-Jul-2019

 ---------------------------------------
 # opt freq b3lyp/gen nosymm pseudo=read
 ---------------------------------------

 -------------------
 Title Card Required
 -------------------
 Symbolic Z-matrix:
 Charge =  0 Multiplicity = 1

 SCF Done:  E(RB3LYP) =  -8002.93783180     A.U. after   37 cycles
 SCF Done:  E(RB3LYP) =  -8002.94558673     A.U. after   25 cycles
 SCF Done:  E(RB3LYP) =  -8002.95083434     A.U. after   28 cycles
 SCF Done:  E(RB3LYP) =  -8002.95341273     A.U. after   28 cycles
 SCF Done:  E(RB3LYP) =  -8002.95562042     A.U. after   29 cycles
 SCF Done:  E(RB3LYP) =  -8002.95765066     A.U. after   29 cycles
 SCF Done:  E(RB3LYP) =  -8002.95965525     A.U. after   28 cycles
 SCF Done:  E(RB3LYP) =  -8002.96318197     A.U. after   24 cycles
 SCF Done:  E(RB3LYP) =  -8002.97133643     A.U. after   27 cycles
 SCF Done:  E(RB3LYP) =  -8002.97540707     A.U. after   28 cycles
 SCF Done:  E(RB3LYP) =  -8002.99139809     A.U. after   21 cycles
 SCF Done:  E(RB3LYP) =  -8002.99145053     A.U. after   21 cycles
 SCF Done:  E(RB3LYP) =  -8002.99147923     A.U. after   20 cycles
 SCF Done:  E(RB3LYP) =  -8002.99150159     A.U. after   20 cycles
 SCF Done:  E(RB3LYP) =  -8002.99151314     A.U. after   20 cycles
 SCF Done:  E(RB3LYP) =  -8002.99151849     A.U. after   19 cycles
 SCF Done:  E(RB3LYP) =  -8002.99152016     A.U. after   18 cycles
 SCF Done:  E(RB3LYP) =  -8002.99152075     A.U. after   16 cycles
 SCF Done:  E(RB3LYP) =  -8002.99152102     A.U. after   15 cycles
 Optimization completed.
    -- Stationary point found.

 1\1\GINC-NODE10-IB\FOpt\RB3LYP\Gen\C2Mo9O2S18\CHESAGAR\10-Dec-2022\0\\
 # opt freq b3lyp/gen nosymm pseudo=read\\Title Card Required\\0,1\Mo,0
 .417883503,1.959194929,12.0720743932\S,1.3553608666,4.0227034022,11.51
 87863499\S,-1.4853300227,2.7256703374,13.2550012706\S,-0.6716103395,1.
 0158965088,10.1662944146\S,2.1237056742,0.2506273883,11.3146581229\Mo,
 -2.1495815868,2.6922723547,11.0180591605\S,-3.6152896564,1.7994067709,
 9.216565608\S,-1.4826712862,4.8571587747,10.356125796\Mo,0.1795445962,
 3.1904003446,9.5162096308\S,-1.1031244044,2.6181710899,7.3563456792\S,

 Normal termination of Gaussian 16 at Sat Dec 10 14:16:42 2022.

 ------------------------------------------------------------------
 #N Geom=AllCheck Guess=TCheck SCRF=Check GenChk RB3LYP/ChkBas Freq
 ------------------------------------------------------------------

 Structure from the checkpoint file:  "/home/chesagar/scratch/Gau-220841.chk"
 -------------------
 Title Card Required
 -------------------
 Charge =  0 Multiplicity = 1

                          Input orientation:
 ---------------------------------------------------------------------
 Center     Atomic      Atomic             Coordinates (Angstroms)
 Number     Number       Type             X           Y           Z
 ---------------------------------------------------------------------
      1         42           0        0.417884    1.959195   12.072074
      2         16           0        1.355361    4.022703   11.518786
      3         16           0       -1.485330    2.725670   13.255001
      4         16           0       -0.671610    1.015897   10.166294
      5         16           0        2.123706    0.250627   11.314658
      6         42           0       -2.149582    2.692272   11.018059
      7         16           0       -3.615290    1.799407    9.216566
      8         16           0       -1.482671    4.857159   10.356126
      9         42           0        0.179545    3.190400    9.516210
     10         16           0       -1.103124    2.618171    7.356346
     11         16           0        2.064447    2.008448    8.413162
     12         42           0        2.864030    2.502961   10.570125
     13         42           0       -2.701552    4.034388    8.565169
     14         16           0        4.458996    2.465767   12.660549
     15         16           0        4.519107    4.217770   10.099198
     16         16           0       -4.716501    5.259845    8.875572
     17         16           0       -2.077154    6.079886    7.214016
     18         42           0       -5.080283    3.349409   10.087946
     19         16           0       -7.093741    2.700895    9.895974
     20         16           0       -4.363853    3.636707   12.148311
     21         42           0        3.005644    0.929824   13.328650
     22         16           0        3.901308   -0.643756   14.432535
     23         16           0        1.328872    1.895335   14.431797
     24         42           0       -0.364622    4.739114    6.834898
     25         16           0        0.265732    4.777405    4.809079
     26         16           0        1.294212    5.292657    8.341366
     27         42           0        3.466842    4.060703    8.147568
     28          6           0        4.380527    5.792461    7.562274
     29          6           0        4.963482    2.980939    7.223707
     30          8           0        4.898657    6.764914    7.238445
     31          8           0        5.801044    2.401283    6.698169
 ---------------------------------------------------------------------

 SCF Done:  E(RB3LYP) =  -8002.99152102     A.U. after    2 cycles

 Alpha  occ. eigenvalues --  -88.92747 -88.92686 -88.92475 -88.92373 -88.91802
 Alpha  occ. eigenvalues --  -88.91326 -88.91037 -88.90988 -88.90481 -88.90446
 Alpha  occ. eigenvalues --  -88.89651 -88.89191 -88.89094 -88.88875 -88.88850
 Alpha  occ. eigenvalues --  -88.88757 -88.88036 -88.87391 -19.29993 -19.27977
 Alpha  occ. eigenvalues --  -10.36880 -10.35076  -8.00248  -8.00080  -7.99847
 Alpha  occ. eigenvalues --   -7.99834  -7.99347  -7.98856  -7.98641  -7.98468
 Alpha  occ. eigenvalues --   -7.98176  -7.97912  -7.97501  -7.96910  -7.96846
 Alpha  occ. eigenvalues --   -7.96598  -7.96593  -7.96323  -7.95936  -7.95272
 Alpha  occ. eigenvalues --   -5.96301  -5.96246  -5.96108  -5.96075  -5.96060
 Alpha  occ. eigenvalues --   -5.95999  -5.95878  -5.95864  -5.95828  -5.95826
 Alpha  occ. eigenvalues --   -5.95769  -5.95700  -5.95362  -5.95331  -5.95235
 Alpha  occ. eigenvalues --   -5.94886  -5.94841  -5.94732  -5.94714  -5.94610
 Alpha  occ. eigenvalues --   -5.94520  -5.94487  -5.94439  -5.94357  -5.94241
 Alpha  occ. eigenvalues --   -5.94128  -5.94012  -5.93947  -5.93919  -5.93790
 Alpha  occ. eigenvalues --   -5.93522  -5.93428  -5.93374  -5.92978  -5.92976
 Alpha  occ. eigenvalues --   -5.92838  -5.92793  -5.92762  -5.92711  -5.92692
 Alpha  occ. eigenvalues --   -5.92613  -5.92551  -5.92548  -5.92449  -5.92384
 Alpha  occ. eigenvalues --   -5.92380  -5.92252  -5.92150  -5.91925  -5.91878
 Alpha  occ. eigenvalues --   -5.91813  -5.91293  -5.91208  -5.91130  -2.58218
 Alpha  occ. eigenvalues --   -2.57217  -2.56470  -2.55063  -2.54974  -2.54943
 Alpha  occ. eigenvalues --   -2.54860  -2.54693  -2.53972  -1.60984  -1.60531
 Alpha  occ. eigenvalues --   -1.60145  -1.59956  -1.59587  -1.59328  -1.59186
 Alpha  occ. eigenvalues --   -1.58999  -1.58546  -1.58462  -1.58328  -1.58263
 Alpha  occ. eigenvalues --   -1.57891  -1.57614  -1.57534  -1.57350  -1.57183
 Alpha  occ. eigenvalues --   -1.57011  -1.56888  -1.56777  -1.56572  -1.56383
 Alpha  occ. eigenvalues --   -1.56023  -1.55926  -1.55788  -1.55741  -1.55655
 Alpha  occ. eigenvalues --   -1.20086  -1.18157  -0.77243  -0.75625  -0.75201
 Alpha  occ. eigenvalues --   -0.74651  -0.74381  -0.74162  -0.73851  -0.73257
 Alpha  occ. eigenvalues --   -0.72903  -0.72436  -0.71855  -0.71706  -0.71240
 Alpha  occ. eigenvalues --   -0.70861  -0.70675  -0.70017  -0.69244  -0.68630
 Alpha  occ. eigenvalues --   -0.62508  -0.60748  -0.51978  -0.51684  -0.51408
 Alpha  occ. eigenvalues --   -0.50017  -0.49847  -0.49309  -0.44501  -0.44200
 Alpha  occ. eigenvalues --   -0.44052  -0.43306  -0.42416  -0.41903  -0.41750
 Alpha  occ. eigenvalues --   -0.41704  -0.41006  -0.40757  -0.40644  -0.40412
 Alpha  occ. eigenvalues --   -0.40023  -0.39558  -0.39176  -0.39053  -0.38780
 Alpha  occ. eigenvalues --   -0.38690  -0.38329  -0.38102  -0.37800  -0.37679
 Alpha  occ. eigenvalues --   -0.37607  -0.37239  -0.36942  -0.36688  -0.36450
 Alpha  occ. eigenvalues --   -0.35986  -0.35718  -0.35654  -0.35504  -0.35420
 Alpha  occ. eigenvalues --   -0.35247  -0.34952  -0.34780  -0.34425  -0.34040
 Alpha  occ. eigenvalues --   -0.33764  -0.33428  -0.33242  -0.32992  -0.32481
 Alpha  occ. eigenvalues --   -0.32329  -0.31890  -0.31454  -0.31208  -0.31084
 Alpha  occ. eigenvalues --   -0.30669  -0.30103  -0.29517  -0.29198  -0.28876
 Alpha  occ. eigenvalues --   -0.28857  -0.28201  -0.27732  -0.27292  -0.26447
 Alpha  occ. eigenvalues --   -0.26280  -0.25909  -0.25220  -0.24729  -0.24115
 Alpha  occ. eigenvalues --   -0.23692
 Alpha virt. eigenvalues --   -0.18975  -0.17041  -0.16333  -0.15934  -0.15333
 Alpha virt. eigenvalues --   -0.15214  -0.14489  -0.14246  -0.14047  -0.13540
 Alpha virt. eigenvalues --   -0.13400  -0.12803  -0.12615  -0.12200  -0.12069

 Mulliken charges:
               1
     1  Mo  -0.243794
     2  S    0.342491
     3  S    0.037999
     4  S    0.218720
     5  S    0.084097
     6  Mo  -0.172400
     7  S    0.097528
     8  S    0.347027
     9  Mo  -0.676182
    10  S    0.118372
    11  S    0.148524
    12  Mo  -0.295299
    13  Mo  -0.310241
    14  S   -0.067823
    15  S    0.111059
    16  S    0.002528
    17  S    0.029564
    18  Mo   0.283921
    19  S   -0.218332
    20  S   -0.045138
    21  Mo   0.323981
    22  S   -0.201284
    23  S   -0.018500
    24  Mo   0.327271
    25  S   -0.199570
    26  S   -0.014072
    27  Mo  -0.079498
    28  C    0.235623
    29  C    0.222849
    30  O   -0.203817
    31  O   -0.185601
 Sum of Mulliken charges =  -0.00000

 Dipole moment (field-independent basis, Debye):
    X=              4.5639    Y=              0.3656    Z=             -4.3032  Tot=              6.2834
 Quadrupole moment (field-independent basis, Debye-Ang):
   XX=           -470.0074   YY=           -464.8072   ZZ=           -556.1885
   XY=             20.7045   XZ=             32.7588   YZ=             -6.9079

  Exact polarizability:    1144.021     -62.424     573.478      31.510    -215.531     826.551
 Approx polarizability:    3284.456    -129.979    1891.517     -45.651    -618.701    2748.826

                      1                      2                      3
                      A                      A                      A
 Frequencies --     22.9096                32.1389                33.2338
 Red. masses --     23.5245                21.1589                31.0752
 Frc consts  --      0.0073                 0.0129                 0.0202
 IR Inten    --      0.1817                 0.0832                 2.4629

                      4                      5                      6
                      A                      A                      A
 Frequencies --     45.4061                51.2220                57.9041
 Red. masses --     35.7607                25.7647                36.5079
 Frc consts  --      0.0434                 0.0398                 0.0721
 IR Inten    --      0.4168                 0.4960                 0.2590

                      7                      8                      9
                      A                      A                      A
 Frequencies --     61.4677                65.5713                66.7553
 Red. masses --     21.0973                23.7123                27.6059
 Frc consts  --      0.0470                 0.0601                 0.0725
 IR Inten    --      0.2108                 0.0892                 0.0767

                     10                     11                     12
                      A                      A                      A
 Frequencies --     73.7310                81.2360                84.1496
 Red. masses --     28.9332                26.5169                38.2054
 Frc consts  --      0.0927                 0.1031                 0.1594
 IR Inten    --      0.1483                 0.6329                 1.1063

                     13                     14                     15
                      A                      A                      A
 Frequencies --     85.9722                88.5586                94.3907
 Red. masses --     36.1860                39.4945                39.1929
 Frc consts  --      0.1576                 0.1825                 0.2057
 IR Inten    --      0.8333                 0.5363                 2.9495

                     16                     17                     18
                      A                      A                      A
 Frequencies --    100.6243               102.2764               108.6642
 Red. masses --     35.4255                39.8845                40.6845
 Frc consts  --      0.2113                 0.2458                 0.2830
 IR Inten    --      0.7169                 4.3253                 0.9877

                     19                     20                     21
                      A                      A                      A
 Frequencies --    114.4474               117.5883               120.5635
 Red. masses --     40.2420                41.8199                45.7748
 Frc consts  --      0.3106                 0.3407                 0.3920
 IR Inten    --      0.6780                 3.9686                 1.0352

                     22                     23                     24
                      A                      A                      A
 Frequencies --    127.6404               132.7414               137.4596
 Red. masses --     46.9271                53.3896                48.3889
 Frc consts  --      0.4505                 0.5543                 0.5387
 IR Inten    --      1.4847                15.3158                 0.1889

                     25                     26                     27
                      A                      A                      A
 Frequencies --    142.3521               146.2012               148.9740
 Red. masses --     46.8062                42.1235                47.7263
 Frc consts  --      0.5588                 0.5305                 0.6241
 IR Inten    --      2.8832                 1.0391                 1.4475

                     28                     29                     30
                      A                      A                      A
 Frequencies --    150.3167               154.1328               155.6890
 Red. masses --     46.2271                43.9236                40.2154
 Frc consts  --      0.6154                 0.6148                 0.5743
 IR Inten    --      0.5060                 4.0816                 0.9719

                     31                     32                     33
                      A                      A                      A
 Frequencies --    158.7894               163.8053               167.2065
 Red. masses --     42.1352                49.5099                43.3696
 Frc consts  --      0.6259                 0.7827                 0.7144
 IR Inten    --      0.5436                 1.0231                 0.7402

                     34                     35                     36
                      A                      A                      A
 Frequencies --    172.8563               181.8869               187.8299
 Red. masses --     47.0260                50.3654                48.5244
 Frc consts  --      0.8279                 0.9817                 1.0086
 IR Inten    --      3.5973                 0.2941                 1.5472

                     37                     38                     39
                      A                      A                      A
 Frequencies --    194.2758               200.0729               203.6145
 Red. masses --     47.4187                38.8298                41.3228
 Frc consts  --      1.0545                 0.9158                 1.0094
 IR Inten    --      5.8603                 4.8563                 2.2698

                     40                     41                     42
                      A                      A                      A
 Frequencies --    211.4586               221.1498               230.1315
 Red. masses --     36.1802                44.9670                36.4353
 Frc consts  --      0.9532                 1.2957                 1.1369
 IR Inten    --      0.6233                 0.0774                 1.1283

                     43                     44                     45
                      A                      A                      A
 Frequencies --    238.2188               249.2131               249.6414
 Red. masses --     36.4483                35.0740                37.2564
 Frc consts  --      1.2187                 1.2834                 1.3680
 IR Inten    --      2.4779                 0.0203                 0.9920

                     46                     47                     48
                      A                      A                      A
 Frequencies --    256.3853               263.6374               275.7419
 Red. masses --     34.7234                39.5406                34.4969
 Frc consts  --      1.3448                 1.6192                 1.5454
 IR Inten    --      3.7541                 3.1719                 2.7500

                     49                     50                     51
                      A                      A                      A
 Frequencies --    284.4143               288.5944               296.5404
 Red. masses --     35.5124                36.6517                36.0616
 Frc consts  --      1.6925                 1.7985                 1.8684
 IR Inten    --      6.3005                 5.6273                 6.1376

                     52                     53                     54
                      A                      A                      A
 Frequencies --    298.1166               304.2547               304.7687
 Red. masses --     38.8203                36.4157                34.6861
 Frc consts  --      2.0327                 1.9862                 1.8982
 IR Inten    --      1.0511                 2.0349                 8.2277

                     55                     56                     57
                      A                      A                      A
 Frequencies --    314.7896               316.7748               319.4421
 Red. masses --     36.2557                35.5648                36.3354
 Frc consts  --      2.1167                 2.1027                 2.1846
 IR Inten    --      1.2412                 0.9963                 3.3727

                     58                     59                     60
                      A                      A                      A
 Frequencies --    336.0379               343.9227               349.8243
 Red. masses --     40.0145                35.9182                15.0532
 Frc consts  --      2.6622                 2.5031                 1.0854
 IR Inten    --      0.2335                 0.7372                12.7955

                     61                     62                     63
                      A                      A                      A
 Frequencies --    361.5532               369.5089               381.6054
 Red. masses --     40.3866                35.8228                23.4391
 Frc consts  --      3.1105                 2.8818                 2.0110
 IR Inten    --      2.4967                 2.6609                26.9699

                     64                     65                     66
                      A                      A                      A
 Frequencies --    389.9838               401.0588               408.1402
 Red. masses --     20.3934                18.9660                27.1505
 Frc consts  --      1.8274                 1.7974                 2.6647
 IR Inten    --     19.0580                 8.7453                24.9462

                     67                     68                     69
                      A                      A                      A
 Frequencies --    410.9031               418.5741               426.0705
 Red. masses --     30.5515                34.2338                35.2262
 Frc consts  --      3.0392                 3.5339                 3.7677
 IR Inten    --     21.7567                 0.9895                 2.6683

                     70                     71                     72
                      A                      A                      A
 Frequencies --    429.3385               430.5977               434.5910
 Red. masses --     36.0184                15.4769                34.1818
 Frc consts  --      3.9118                 1.6907                 3.8037
 IR Inten    --      7.1897                10.9234                 0.1316

                     73                     74                     75
                      A                      A                      A
 Frequencies --    436.1338               445.3240               446.8362
 Red. masses --     35.1687                20.2748                37.0981
 Frc consts  --      3.9414                 2.3690                 4.3641
 IR Inten    --      2.1469                15.6249                 0.8772

                     76                     77                     78
                      A                      A                      A
 Frequencies --    453.6143               459.9843               469.8452
 Red. masses --     37.7778                27.6144                39.8649
 Frc consts  --      4.5799                 3.4425                 5.1850
 IR Inten    --      1.4181                 8.0422                10.2076

                     79                     80                     81
                      A                      A                      A
 Frequencies --    481.1861               483.9980               489.0586
 Red. masses --     38.8792                39.1274                26.6630
 Frc consts  --      5.3039                 5.4003                 3.7573
 IR Inten    --     19.9059                14.1480                18.2166

                     82                     83                     84
                      A                      A                      A
 Frequencies --    543.5408               556.5540               560.3057
 Red. masses --     13.2815                39.7066                40.0468
 Frc consts  --      2.3119                 7.2465                 7.4074
 IR Inten    --     17.1525               134.8413               234.1703

                     85                     86                     87
                      A                      A                      A
 Frequencies --    563.2951              2086.8380              2126.9319
 Red. masses --     40.0331                13.4167                13.3844
 Frc consts  --      7.4841                34.4250                35.6743
 IR Inten    --    116.7473               726.3141              2174.1043

 - Thermochemistry -
 -------------------
 Temperature   298.150 Kelvin.  Pressure   1.00000 Atm.
 Atom     1 has atomic number 42 and mass  97.90550

 Molecular mass:  1512.63662 amu.
 Principal axes and moments of inertia in atomic units:
                           1         2         3
     Eigenvalues --  ******************************
           X            0.94889  -0.31089   0.05436
           Y           -0.19683  -0.44831   0.87194
           Z            0.24671   0.83807   0.48659
 This molecule is an asymmetric top.
 Rotational symmetry number  1.
 Warning -- assumption of classical behavior for rotation
           may cause significant error
 Rotational temperatures (Kelvin)      0.00243     0.00154     0.00104
 Rotational constants (GHZ):           0.05071     0.03201     0.02172
 Zero-point vibrational energy     155233.9 (Joules/Mol)
                                   37.10180 (Kcal/Mol)
 Warning -- explicit consideration of  85 degrees of freedom as
           vibrations may cause significant error
 Vibrational temperatures:     32.96    46.24    47.82    65.33    73.70
          (Kelvin)             83.31    88.44    94.34    96.05   106.08
                              116.88   121.07   123.69   127.42   135.81
                              144.78   147.15   156.34   164.66   169.18
                              173.46   183.65   190.99   197.77   204.81
                              210.35   214.34   216.27   221.76   224.00
                              228.46   235.68   240.57   248.70   261.69
                              270.25   279.52   287.86   292.96   304.24
                              318.19   331.11   342.74   358.56   359.18
                              368.88   379.32   396.73   409.21   415.22
                              426.66   428.92   437.75   438.49   452.91
                              455.77   459.61   483.48   494.83   503.32
                              520.19   531.64   549.05   561.10   577.03
                              587.22   591.20   602.23   613.02   617.72
                              619.53   625.28   627.50   640.72   642.90
                              652.65   661.81   676.00   692.32   696.37
                              703.65   782.03   800.76   806.15   810.46
                             3002.49  3060.18

 Zero-point correction=                           0.059125 (Hartree/Particle)
 Thermal correction to Energy=                    0.105587
 Thermal correction to Enthalpy=                  0.106531
 Thermal correction to Gibbs Free Energy=        -0.023489
 Sum of electronic and zero-point Energies=          -8002.932396
 Sum of electronic and thermal Energies=             -8002.885934
 Sum of electronic and thermal Enthalpies=           -8002.884990
 Sum of electronic and thermal Free Energies=        -8003.015010

                     E (Thermal)             CV                S
                      KCal/Mol        Cal/Mol-Kelvin    Cal/Mol-Kelvin
 Total                   66.257            150.857            273.651
 Electronic               0.000              0.000              0.000
 Translational            0.889              2.981             47.815
 Rotational               0.889              2.981             40.340
 Vibrational             64.480            144.896            185.495
 Vibration     1          0.593              1.985              6.365
 Vibration     2          0.594              1.983              5.693
 Vibration     3          0.594              1.983              5.626
 Vibration     4          0.595              1.979              5.008
 Vibration     5          0.595              1.977              4.770
 Vibration     6          0.596              1.974              4.527
 Vibration     7          0.597              1.973              4.410
 Vibration     8          0.597              1.971              4.282
 Vibration     9          0.598              1.970              4.247
 Vibration    10          0.599              1.966              4.051
 Vibration    11          0.600              1.962              3.861
 Vibration    12          0.601              1.960              3.792
 Vibration    13          0.601              1.959              3.750
 Vibration    14          0.601              1.957              3.692
 Vibration    15          0.603              1.953              3.567
 Vibration    16          0.604              1.949              3.442
 Vibration    17          0.604              1.947              3.410
 Vibration    18          0.606              1.942              3.293
 Vibration    19          0.607              1.937              3.192
 Vibration    20          0.608              1.935              3.140
 Vibration    21          0.609              1.932              3.091
 Vibration    22          0.611              1.926              2.981
 Vibration    23          0.613              1.921              2.906
 Vibration    24          0.614              1.916              2.839
 Vibration    25          0.616              1.911              2.772
 Vibration    26          0.617              1.907              2.721
 Vibration    27          0.618              1.904              2.685
 Vibration    28          0.618              1.902              2.668
 Vibration    29          0.620              1.898              2.621
 Vibration    30          0.620              1.896              2.602
 Vibration    31          0.621              1.893              2.564
 Vibration    32          0.623              1.887              2.505
 Vibration    33          0.624              1.883              2.467
 Vibration    34          0.626              1.876              2.404
 Vibration    35          0.630              1.864              2.309
 Vibration    36          0.633              1.857              2.249
 Vibration    37          0.635              1.848              2.187
 Vibration    38          0.638              1.840              2.132
 Vibration    39          0.639              1.835              2.100
 Vibration    40          0.643              1.823              2.031
 Vibration    41          0.648              1.809              1.950
 Vibration    42          0.652              1.795              1.878
 Vibration    43          0.656              1.782              1.816
 Vibration    44          0.662              1.764              1.736
 Vibration    45          0.662              1.763              1.733
 Vibration    46          0.666              1.752              1.686
 Vibration    47          0.670              1.740              1.638
 Vibration    48          0.677              1.718              1.560
 Vibration    49          0.683              1.703              1.507
 Vibration    50          0.685              1.695              1.482
 Vibration    51          0.690              1.680              1.436
 Vibration    52          0.691              1.677              1.427
 Vibration    53          0.695              1.666              1.393
 Vibration    54          0.696              1.665              1.391
 Vibration    55          0.702              1.645              1.337
 Vibration    56          0.704              1.642              1.327
 Vibration    57          0.705              1.636              1.313
 Vibration    58          0.717              1.604              1.231
 Vibration    59          0.723              1.588              1.194
 Vibration    60          0.727              1.576              1.167
 Vibration    61          0.736              1.551              1.115
 Vibration    62          0.742              1.535              1.082
 Vibration    63          0.751              1.509              1.033
 Vibration    64          0.758              1.492              1.000
 Vibration    65          0.767              1.468              0.959
 Vibration    66          0.773              1.453              0.933
 Vibration    67          0.775              1.447              0.923
 Vibration    68          0.781              1.430              0.897
 Vibration    69          0.788              1.414              0.872
 Vibration    70          0.791              1.406              0.861
 Vibration    71          0.792              1.404              0.857
 Vibration    72          0.795              1.395              0.844
 Vibration    73          0.797              1.391              0.839
 Vibration    74          0.805              1.371              0.810
 Vibration    75          0.806              1.368              0.805
 Vibration    76          0.812              1.353              0.785
 Vibration    77          0.818              1.339              0.766
 Vibration    78          0.827              1.317              0.738
 Vibration    79          0.837              1.292              0.707
 Vibration    80          0.840              1.286              0.699
 Vibration    81          0.845              1.274              0.686
 Vibration    82          0.899              1.154              0.558
 Vibration    83          0.912              1.125              0.531
 Vibration    84          0.916              1.117              0.523
 Vibration    85          0.919              1.111              0.517

                           ! Non-Optimized Parameters !

 1\1\GINC-NODE10-IB\Freq\RB3LYP\Gen\C2Mo9O2S18\CHESAGAR\10-Dec-2022\0\\
 #N Geom=AllCheck Guess=TCheck SCRF=Check GenChk RB3LYP/ChkBas Freq\\Ti
 tle Card Required\\0,1\Mo,0.417883503,1.959194929,12.0720743932\S,1.35
 53608666,4.0227034022,11.5187863499\S,-1.4853300227,2.7256703374,13.25
 50012706\S,-0.6716103395,1.0158965088,10.1662944146\S,2.1237056742,0.2
 506273883,11.3146581229\Mo,-2.1495815868,2.6922723547,11.0180591605\S,
 -3.6152896564,1.7994067709,9.216565608\S,-1.4826712862,4.8571587747,10
 .356125796\Mo,0.1795445962,3.1904003446,9.5162096308\S,-1.1031244044,2

 Normal termination of Gaussian 16 at Sat Dec 10 14:29:31 2022.
