 Gaussian 16, Revision C.01,
 Gaussian 16:  ES64L-G16RevC.01  3-Jul-2019

 ---------------------------------------
 # opt freq b3lyp/gen nosymm pseudo=read
 ---------------------------------------

 -------------------
 Title Card Required
 -------------------
 Symbolic Z-matrix:
 Charge =  0 Multiplicity = 1

 SCF Done:  E(RB3LYP) =  -7889.57323204     A.U. after   49 cycles
 SCF Done:  E(RB3LYP) =  -7889.58130886     A.U. after   34 cycles
 SCF Done:  E(RB3LYP) =  -7889.58837318     A.U. after   40 cycles
 SCF Done:  E(RB3LYP) =  -7889.59875763     A.U. after   33 cycles
 SCF Done:  E(RB3LYP) =  -7889.60834636     A.U. after   33 cycles
 SCF Done:  E(RB3LYP) =  -7889.62098709     A.U. after   30 cycles
 SCF Done:  E(RB3LYP) =  -7889.62751272     A.U. after   27 cycles
 SCF Done:  E(RB3LYP) =  -7889.63424955     A.U. after   27 cycles
 SCF Done:  E(RB3LYP) =  -7889.63840267     A.U. after   27 cycles
 SCF Done:  E(RB3LYP) =  -7889.63987346     A.U. after   27 cycles
 SCF Done:  E(RB3LYP) =  -7889.64873240     A.U. after   23 cycles
 SCF Done:  E(RB3LYP) =  -7889.64902119     A.U. after   23 cycles
 SCF Done:  E(RB3LYP) =  -7889.64905578     A.U. after   19 cycles
 SCF Done:  E(RB3LYP) =  -7889.64907295     A.U. after   20 cycles
 SCF Done:  E(RB3LYP) =  -7889.64908149     A.U. after   18 cycles
 SCF Done:  E(RB3LYP) =  -7889.64908591     A.U. after   16 cycles
 SCF Done:  E(RB3LYP) =  -7889.64908809     A.U. after   17 cycles
 SCF Done:  E(RB3LYP) =  -7889.64908891     A.U. after   16 cycles
 SCF Done:  E(RB3LYP) =  -7889.64908950     A.U. after   16 cycles
 Optimization completed.
    -- Stationary point found.

 1\1\GINC-NODE13-IB\FOpt\RB3LYP\Gen\C1Mo9O1S18\CHESAGAR\10-Dec-2022\0\\
 # opt freq b3lyp/gen nosymm pseudo=read\\Title Card Required\\0,1\Mo,0
 .3586623154,1.9196550623,12.2121274175\S,1.3901106873,3.9481404536,11.
 6943770896\S,-1.5807538775,2.6872952675,13.3080273039\S,-0.6119841453,
 1.0261276207,10.2147775335\S,2.0432205559,0.1304949954,11.5849896691\M
 o,-2.1085683131,2.7074215493,11.0326058408\S,-3.4425292991,1.807378670
 1,9.1218724191\S,-1.3326929644,4.8128497681,10.3811807484\Mo,0.4123808
 083,3.1358874797,9.5643349212\S,-0.830234156,2.6596434741,7.3841045424

 Normal termination of Gaussian 16 at Sat Dec 10 14:27:56 2022.

 ------------------------------------------------------------------
 #N Geom=AllCheck Guess=TCheck SCRF=Check GenChk RB3LYP/ChkBas Freq
 ------------------------------------------------------------------

 Structure from the checkpoint file:  "/home/chesagar/scratch/Gau-128778.chk"
 -------------------
 Title Card Required
 -------------------
 Charge =  0 Multiplicity = 1

                          Input orientation:
 ---------------------------------------------------------------------
 Center     Atomic      Atomic             Coordinates (Angstroms)
 Number     Number       Type             X           Y           Z
 ---------------------------------------------------------------------
      1         42           0        0.358662    1.919655   12.212127
      2         16           0        1.390111    3.948140   11.694377
      3         16           0       -1.580754    2.687295   13.308027
      4         16           0       -0.611984    1.026128   10.214778
      5         16           0        2.043221    0.130495   11.584990
      6         42           0       -2.108568    2.707422   11.032606
      7         16           0       -3.442529    1.807379    9.121872
      8         16           0       -1.332693    4.812850   10.381181
      9         42           0        0.412381    3.135887    9.564335
     10         16           0       -0.830234    2.659643    7.384105
     11         16           0        2.223142    1.691028    8.627318
     12         42           0        2.884901    2.345169   10.903206
     13         42           0       -2.511467    4.035312    8.552301
     14         16           0        4.338304    2.456853   12.997611
     15         16           0        4.738271    3.775558   10.170501
     16         16           0       -4.536009    5.259632    8.794593
     17         16           0       -1.861591    6.097953    7.212466
     18         42           0       -4.956601    3.327044    9.950645
     19         16           0       -6.950402    2.670829    9.634527
     20         16           0       -4.352590    3.588720   12.058264
     21         42           0        2.879627    0.882145   13.596124
     22         16           0        3.786714   -0.649136   14.749044
     23         16           0        1.150056    1.837448   14.622444
     24         42           0       -0.097451    4.808134    6.943869
     25         16           0        0.682986    4.866117    4.975495
     26         16           0        1.511383    5.389503    8.548288
     27         42           0        3.218036    3.809725    8.525980
     28          6           0        4.668179    3.920466    7.119958
     29          8           0        5.463786    3.966936    6.287926
 ---------------------------------------------------------------------

 SCF Done:  E(RB3LYP) =  -7889.64908950     A.U. after    1 cycles

 Alpha  occ. eigenvalues --  -88.93709 -88.93313 -88.92680 -88.92648 -88.92089
 Alpha  occ. eigenvalues --  -88.91984 -88.91941 -88.91313 -88.91009 -88.90374
 Alpha  occ. eigenvalues --  -88.90127 -88.89933 -88.89676 -88.89477 -88.89384
 Alpha  occ. eigenvalues --  -88.89320 -88.88196 -88.88089 -19.27179 -10.34209
 Alpha  occ. eigenvalues --   -8.01075  -8.00638  -8.00299  -8.00140  -7.99614
 Alpha  occ. eigenvalues --   -7.99483  -7.99373  -7.98728  -7.98719  -7.98049
 Alpha  occ. eigenvalues --   -7.97975  -7.97650  -7.97414  -7.97118  -7.97036
 Alpha  occ. eigenvalues --   -7.97033  -7.96086  -7.95967  -5.97108  -5.97047
 Alpha  occ. eigenvalues --   -5.96989  -5.96671  -5.96615  -5.96557  -5.96377
 Alpha  occ. eigenvalues --   -5.96288  -5.96180  -5.96132  -5.96113  -5.96012
 Alpha  occ. eigenvalues --   -5.95639  -5.95604  -5.95503  -5.95488  -5.95471
 Alpha  occ. eigenvalues --   -5.95422  -5.95372  -5.95363  -5.95244  -5.94775
 Alpha  occ. eigenvalues --   -5.94774  -5.94725  -5.94677  -5.94603  -5.94554
 Alpha  occ. eigenvalues --   -5.94124  -5.93998  -5.93973  -5.93909  -5.93885
 Alpha  occ. eigenvalues --   -5.93861  -5.93719  -5.93582  -5.93512  -5.93496
 Alpha  occ. eigenvalues --   -5.93368  -5.93225  -5.93205  -5.93168  -5.93152
 Alpha  occ. eigenvalues --   -5.93066  -5.92979  -5.92956  -5.92907  -5.92857
 Alpha  occ. eigenvalues --   -5.92827  -5.92073  -5.92016  -5.91987  -5.91980
 Alpha  occ. eigenvalues --   -5.91902  -5.91826  -2.58324  -2.57363  -2.57149
 Alpha  occ. eigenvalues --   -2.55912  -2.55687  -2.55486  -2.55091  -2.54394
 Alpha  occ. eigenvalues --   -2.54346  -1.61202  -1.60630  -1.60232  -1.60128
 Alpha  occ. eigenvalues --   -1.60019  -1.59752  -1.59678  -1.59368  -1.59329
 Alpha  occ. eigenvalues --   -1.59043  -1.58902  -1.58614  -1.58349  -1.58197
 Alpha  occ. eigenvalues --   -1.58049  -1.57782  -1.57749  -1.57373  -1.57333
 Alpha  occ. eigenvalues --   -1.57012  -1.56840  -1.56625  -1.56474  -1.56367
 Alpha  occ. eigenvalues --   -1.56017  -1.55923  -1.55780  -1.17113  -0.77925
 Alpha  occ. eigenvalues --   -0.76001  -0.75809  -0.75492  -0.75127  -0.74641
 Alpha  occ. eigenvalues --   -0.73995  -0.73642  -0.73116  -0.72655  -0.72511
 Alpha  occ. eigenvalues --   -0.72260  -0.71792  -0.71250  -0.71134  -0.70582
 Alpha  occ. eigenvalues --   -0.69404  -0.69306  -0.60083  -0.49216  -0.49105
 Alpha  occ. eigenvalues --   -0.48915  -0.45127  -0.45021  -0.44630  -0.43891
 Alpha  occ. eigenvalues --   -0.42730  -0.42297  -0.42209  -0.42135  -0.41684
 Alpha  occ. eigenvalues --   -0.41543  -0.41209  -0.40989  -0.40477  -0.39979
 Alpha  occ. eigenvalues --   -0.39929  -0.39665  -0.39287  -0.39005  -0.38809
 Alpha  occ. eigenvalues --   -0.38450  -0.38324  -0.38108  -0.37970  -0.37811
 Alpha  occ. eigenvalues --   -0.37521  -0.37247  -0.36979  -0.36445  -0.36308
 Alpha  occ. eigenvalues --   -0.36160  -0.35796  -0.35744  -0.35628  -0.35462
 Alpha  occ. eigenvalues --   -0.35136  -0.34935  -0.34735  -0.34355  -0.33784
 Alpha  occ. eigenvalues --   -0.33593  -0.33490  -0.33302  -0.32729  -0.32508
 Alpha  occ. eigenvalues --   -0.32205  -0.31726  -0.31339  -0.31210  -0.30829
 Alpha  occ. eigenvalues --   -0.30108  -0.29658  -0.29353  -0.29242  -0.28890
 Alpha  occ. eigenvalues --   -0.28290  -0.27491  -0.26641  -0.26453  -0.25906
 Alpha  occ. eigenvalues --   -0.25376  -0.24980  -0.24207  -0.24020
 Alpha virt. eigenvalues --   -0.18222  -0.17050  -0.16368  -0.16087  -0.15702
 Alpha virt. eigenvalues --   -0.15181  -0.15126  -0.14741  -0.14162  -0.14087
 Alpha virt. eigenvalues --   -0.14040  -0.13342  -0.12918  -0.12725  -0.12613

 Mulliken charges:
               1
     1  Mo  -0.241963
     2  S    0.356872
     3  S    0.038295
     4  S    0.206749
     5  S    0.090501
     6  Mo  -0.185082
     7  S    0.110909
     8  S    0.313791
     9  Mo  -0.766535
    10  S    0.123340
    11  S    0.145416
    12  Mo  -0.304786
    13  Mo  -0.290598
    14  S   -0.019950
    15  S    0.017369
    16  S    0.012169
    17  S    0.015495
    18  Mo   0.299097
    19  S   -0.212223
    20  S   -0.034278
    21  Mo   0.313042
    22  S   -0.199703
    23  S   -0.019245
    24  Mo   0.291511
    25  S   -0.177674
    26  S   -0.077299
    27  Mo   0.207057
    28  C    0.188262
    29  O   -0.200538
 Sum of Mulliken charges =  -0.00000

 Dipole moment (field-independent basis, Debye):
    X=              1.2179    Y=              0.6175    Z=             -2.8450  Tot=              3.1557
 Quadrupole moment (field-independent basis, Debye-Ang):
   XX=           -468.1586   YY=           -448.8425   ZZ=           -519.1964
   XY=              8.6795   XZ=              7.3772   YZ=             -0.9609

  Exact polarizability:    1091.694     -80.313     537.653      61.737    -217.332     831.438
 Approx polarizability:    3298.840    -157.697    1783.867     -19.946    -639.072    2771.411

                      1                      2                      3
                      A                      A                      A
 Frequencies --     26.7169                40.0885                43.3354
 Red. masses --     34.7444                24.0431                36.3232
 Frc consts  --      0.0146                 0.0228                 0.0402
 IR Inten    --      0.7520                 0.4486                 0.1679

                      4                      5                      6
                      A                      A                      A
 Frequencies --     49.4917                56.9767                57.5866
 Red. masses --     23.0549                29.2005                36.5443
 Frc consts  --      0.0333                 0.0559                 0.0714
 IR Inten    --      0.2629                 0.0309                 0.3317

                      7                      8                      9
                      A                      A                      A
 Frequencies --     64.4671                72.7072                76.4049
 Red. masses --     28.1123                31.7747                38.1180
 Frc consts  --      0.0688                 0.0990                 0.1311
 IR Inten    --      0.2647                 1.3746                 1.4846

                     10                     11                     12
                      A                      A                      A
 Frequencies --     80.6641                84.6062                84.9019
 Red. masses --     39.1093                36.4249                41.4668
 Frc consts  --      0.1499                 0.1536                 0.1761
 IR Inten    --      1.6505                 0.0609                 1.2717

                     13                     14                     15
                      A                      A                      A
 Frequencies --     92.1938                97.2647               102.9286
 Red. masses --     37.1944                48.5431                44.3960
 Frc consts  --      0.1863                 0.2706                 0.2771
 IR Inten    --      0.3326                 0.4674                 1.4966

                     16                     17                     18
                      A                      A                      A
 Frequencies --    104.5876               107.1436               114.2736
 Red. masses --     41.4923                44.3244                47.4088
 Frc consts  --      0.2674                 0.2998                 0.3648
 IR Inten    --      0.2944                 3.4007                 5.4468

                     19                     20                     21
                      A                      A                      A
 Frequencies --    122.7511               129.1099               133.2707
 Red. masses --     53.1096                49.9966                46.3784
 Frc consts  --      0.4715                 0.4910                 0.4853
 IR Inten    --      5.3610                 0.5805                 0.1813

                     22                     23                     24
                      A                      A                      A
 Frequencies --    139.0846               139.7282               144.5040
 Red. masses --     48.4892                47.6186                41.5358
 Frc consts  --      0.5527                 0.5478                 0.5110
 IR Inten    --      7.3681                 0.9381                 0.6241

                     25                     26                     27
                      A                      A                      A
 Frequencies --    146.3828               151.7207               152.4703
 Red. masses --     46.8833                43.5373                48.9694
 Frc consts  --      0.5919                 0.5905                 0.6707
 IR Inten    --      0.6731                 8.2833                 3.9931

                     28                     29                     30
                      A                      A                      A
 Frequencies --    156.0721               160.8722               165.6236
 Red. masses --     43.2777                41.6863                44.5349
 Frc consts  --      0.6211                 0.6356                 0.7198
 IR Inten    --      2.5138                 1.7521                 0.6982

                     31                     32                     33
                      A                      A                      A
 Frequencies --    167.8561               173.0140               182.1408
 Red. masses --     47.3857                43.0799                53.1498
 Frc consts  --      0.7866                 0.7598                 1.0389
 IR Inten    --      0.4399                 2.3996                 6.4694

                     34                     35                     36
                      A                      A                      A
 Frequencies --    189.0784               192.8524               198.8787
 Red. masses --     46.2994                37.5834                44.1810
 Frc consts  --      0.9752                 0.8236                 1.0296
 IR Inten    --      0.1540                 4.4890                 4.5550

                     37                     38                     39
                      A                      A                      A
 Frequencies --    205.3127               210.5594               223.0858
 Red. masses --     42.0980                46.5819                37.6841
 Frc consts  --      1.0455                 1.2168                 1.1050
 IR Inten    --      6.6371                 0.4996                 0.7968

                     40                     41                     42
                      A                      A                      A
 Frequencies --    230.6191               238.4354               249.8883
 Red. masses --     36.7246                35.1644                34.5315
 Frc consts  --      1.1508                 1.1779                 1.2704
 IR Inten    --      2.1080                 3.0287                 0.1272

                     43                     44                     45
                      A                      A                      A
 Frequencies --    253.5129               264.7501               269.2619
 Red. masses --     39.3988                38.2258                39.1077
 Frc consts  --      1.4919                 1.5786                 1.6706
 IR Inten    --      0.1047                 2.9426                 2.5619

                     46                     47                     48
                      A                      A                      A
 Frequencies --    273.6509               281.2731               290.5220
 Red. masses --     35.2187                36.0782                34.5028
 Frc consts  --      1.5539                 1.6817                 1.7158
 IR Inten    --      6.0272                 1.1833                 1.9917

                     49                     50                     51
                      A                      A                      A
 Frequencies --    292.9024               297.6467               298.0120
 Red. masses --     40.0054                42.7288                34.7231
 Frc consts  --      2.0222                 2.2303                 1.8169
 IR Inten    --      1.2413                 0.9993                 3.6370

                     52                     53                     54
                      A                      A                      A
 Frequencies --    306.8388               312.4236               316.7168
 Red. masses --     35.6286                36.3089                36.8493
 Frc consts  --      1.9764                 2.0881                 2.1778
 IR Inten    --      5.9832                 0.9714                 1.5728

                     55                     56                     57
                      A                      A                      A
 Frequencies --    325.6770               342.9336               346.0584
 Red. masses --     38.9725                34.3758                33.3144
 Frc consts  --      2.4355                 2.3819                 2.3506
 IR Inten    --      3.0601                 0.8030                 0.5295

                     58                     59                     60
                      A                      A                      A
 Frequencies --    363.0331               370.8567               374.2922
 Red. masses --     41.1024                33.1525                29.8431
 Frc consts  --      3.1916                 2.6864                 2.4633
 IR Inten    --      3.1192                 2.2542                 6.5914

                     61                     62                     63
                      A                      A                      A
 Frequencies --    385.6275               406.4004               411.1557
 Red. masses --     17.2515                20.8462                29.4328
 Frc consts  --      1.5115                 2.0286                 2.9315
 IR Inten    --      3.7842                 6.0184                 1.3525

                     64                     65                     66
                      A                      A                      A
 Frequencies --    419.3396               423.6720               428.2663
 Red. masses --     36.0012                30.5030                33.4400
 Frc consts  --      3.7299                 3.2259                 3.6136
 IR Inten    --      6.7655                 0.5018                 9.8155

                     67                     68                     69
                      A                      A                      A
 Frequencies --    432.7936               434.2793               435.3175
 Red. masses --     23.8700                30.0536                25.5071
 Frc consts  --      2.6343                 3.3395                 2.8479
 IR Inten    --     52.8270                13.6247                 1.7317

                     70                     71                     72
                      A                      A                      A
 Frequencies --    436.9176               450.6959               453.1672
 Red. masses --     35.2574                33.7474                35.0268
 Frc consts  --      3.9655                 4.0389                 4.2381
 IR Inten    --      0.0178                 2.5191                 0.1423

                     73                     74                     75
                      A                      A                      A
 Frequencies --    459.2102               468.0365               473.4804
 Red. masses --     34.0599                38.5972                36.3418
 Frc consts  --      4.2317                 4.9816                 4.8002
 IR Inten    --      4.6009                19.1604                 2.8825

                     76                     77                     78
                      A                      A                      A
 Frequencies --    481.0920               485.4875               559.8765
 Red. masses --     39.4036                38.7812                39.7287
 Frc consts  --      5.3733                 5.3855                 7.3374
 IR Inten    --     19.3593                13.9113               133.8472

                     79                     80                     81
                      A                      A                      A
 Frequencies --    561.8958               564.0019              2069.2172
 Red. masses --     39.9929                39.9959                13.3955
 Frc consts  --      7.4395                 7.4960                33.7926
 IR Inten    --    264.6974                74.9330              1871.4380

 - Thermochemistry -
 -------------------
 Temperature   298.150 Kelvin.  Pressure   1.00000 Atm.
 Atom     1 has atomic number 42 and mass  97.90550

 Molecular mass:  1484.64171 amu.
 Principal axes and moments of inertia in atomic units:
                           1         2         3
     Eigenvalues --  ******************************
           X            0.88515  -0.46145   0.05985
           Y           -0.26354  -0.39114   0.88179
           Z            0.38349   0.79629   0.46782
 This molecule is an asymmetric top.
 Rotational symmetry number  1.
 Warning -- assumption of classical behavior for rotation
           may cause significant error
 Rotational temperatures (Kelvin)      0.00265     0.00162     0.00110
 Rotational constants (GHZ):           0.05521     0.03380     0.02302
 Zero-point vibrational energy     133861.8 (Joules/Mol)
                                   31.99373 (Kcal/Mol)
 Warning -- explicit consideration of  80 degrees of freedom as
           vibrations may cause significant error
 Vibrational temperatures:     38.44    57.68    62.35    71.21    81.98
          (Kelvin)             82.85    92.75   104.61   109.93   116.06
                              121.73   122.15   132.65   139.94   148.09
                              150.48   154.16   164.41   176.61   185.76
                              191.75   200.11   201.04   207.91   210.61
                              218.29   219.37   224.55   231.46   238.30
                              241.51   248.93   262.06   272.04   277.47
                              286.14   295.40   302.95   320.97   331.81
                              343.06   359.53   364.75   380.92   387.41
                              393.72   404.69   418.00   421.42   428.25
                              428.77   441.47   449.51   455.68   468.58
                              493.40   497.90   522.32   533.58   538.52
                              554.83   584.72   591.56   603.34   609.57
                              616.18   622.69   624.83   626.32   628.63
                              648.45   652.01   660.70   673.40   681.23
                              692.18   698.51   805.54   808.44   811.47
                             2977.14

 Zero-point correction=                           0.050985 (Hartree/Particle)
 Thermal correction to Energy=                    0.094963
 Thermal correction to Enthalpy=                  0.095907
 Thermal correction to Gibbs Free Energy=        -0.028131
 Sum of electronic and zero-point Energies=          -7889.598104
 Sum of electronic and thermal Energies=             -7889.554126
 Sum of electronic and thermal Enthalpies=           -7889.553182
 Sum of electronic and thermal Free Energies=        -7889.677221

                     E (Thermal)             CV                S
                      KCal/Mol        Cal/Mol-Kelvin    Cal/Mol-Kelvin
 Total                   59.590            142.744            261.062
 Electronic               0.000              0.000              0.000
 Translational            0.889              2.981             47.759
 Rotational               0.889              2.981             40.145
 Vibrational             57.813            136.782            173.158
 Vibration     1          0.593              1.984              6.059
 Vibration     2          0.594              1.981              5.255
 Vibration     3          0.595              1.980              5.100
 Vibration     4          0.595              1.978              4.838
 Vibration     5          0.596              1.975              4.559
 Vibration     6          0.596              1.974              4.538
 Vibration     7          0.597              1.971              4.316
 Vibration     8          0.599              1.967              4.079
 Vibration     9          0.599              1.965              3.981
 Vibration    10          0.600              1.962              3.875
 Vibration    11          0.601              1.960              3.781
 Vibration    12          0.601              1.960              3.774
 Vibration    13          0.602              1.955              3.613
 Vibration    14          0.603              1.951              3.508
 Vibration    15          0.605              1.947              3.398
 Vibration    16          0.605              1.946              3.367
 Vibration    17          0.606              1.944              3.320
 Vibration    18          0.607              1.938              3.195
 Vibration    19          0.610              1.930              3.057
 Vibration    20          0.612              1.924              2.959
 Vibration    21          0.613              1.920              2.898
 Vibration    22          0.615              1.914              2.816
 Vibration    23          0.615              1.914              2.808
 Vibration    24          0.616              1.909              2.743
 Vibration    25          0.617              1.907              2.719
 Vibration    26          0.619              1.901              2.651
 Vibration    27          0.619              1.900              2.641
 Vibration    28          0.620              1.896              2.597
 Vibration    29          0.622              1.890              2.540
 Vibration    30          0.624              1.885              2.485
 Vibration    31          0.625              1.882              2.459
 Vibration    32          0.627              1.876              2.402
 Vibration    33          0.630              1.864              2.306
 Vibration    34          0.633              1.855              2.237
 Vibration    35          0.635              1.850              2.200
 Vibration    36          0.637              1.841              2.143
 Vibration    37          0.640              1.832              2.085
 Vibration    38          0.643              1.825              2.039
 Vibration    39          0.649              1.806              1.934
 Vibration    40          0.652              1.794              1.874
 Vibration    41          0.656              1.782              1.815
 Vibration    42          0.663              1.763              1.731
 Vibration    43          0.665              1.757              1.706
 Vibration    44          0.671              1.738              1.630
 Vibration    45          0.674              1.730              1.601
 Vibration    46          0.676              1.722              1.573
 Vibration    47          0.681              1.708              1.526
 Vibration    48          0.686              1.691              1.471
 Vibration    49          0.688              1.687              1.457
 Vibration    50          0.691              1.678              1.430
 Vibration    51          0.691              1.677              1.428
 Vibration    52          0.697              1.661              1.379
 Vibration    53          0.701              1.650              1.349
 Vibration    54          0.704              1.642              1.327
 Vibration    55          0.710              1.624              1.281
 Vibration    56          0.722              1.590              1.198
 Vibration    57          0.724              1.583              1.184
 Vibration    58          0.737              1.548              1.109
 Vibration    59          0.743              1.532              1.076
 Vibration    60          0.745              1.525              1.062
 Vibration    61          0.754              1.501              1.017
 Vibration    62          0.771              1.456              0.939
 Vibration    63          0.775              1.446              0.923
 Vibration    64          0.782              1.428              0.894
 Vibration    65          0.786              1.419              0.880
 Vibration    66          0.790              1.409              0.864
 Vibration    67          0.794              1.399              0.850
 Vibration    68          0.795              1.396              0.845
 Vibration    69          0.796              1.393              0.841
 Vibration    70          0.797              1.390              0.836
 Vibration    71          0.809              1.359              0.794
 Vibration    72          0.812              1.354              0.786
 Vibration    73          0.817              1.341              0.768
 Vibration    74          0.825              1.321              0.743
 Vibration    75          0.830              1.309              0.728
 Vibration    76          0.837              1.292              0.707
 Vibration    77          0.842              1.282              0.695
 Vibration    78          0.915              1.118              0.524
 Vibration    79          0.918              1.114              0.520
 Vibration    80          0.920              1.109              0.516

                           ! Non-Optimized Parameters !

 1\1\GINC-NODE13-IB\Freq\RB3LYP\Gen\C1Mo9O1S18\CHESAGAR\10-Dec-2022\0\\
 #N Geom=AllCheck Guess=TCheck SCRF=Check GenChk RB3LYP/ChkBas Freq\\Ti
 tle Card Required\\0,1\Mo,0.3586623154,1.9196550623,12.2121274175\S,1.
 3901106873,3.9481404536,11.6943770896\S,-1.5807538775,2.6872952675,13.
 3080273039\S,-0.6119841453,1.0261276207,10.2147775335\S,2.0432205559,0
 .1304949954,11.5849896691\Mo,-2.1085683131,2.7074215493,11.0326058408\
 S,-3.4425292991,1.8073786701,9.1218724191\S,-1.3326929644,4.8128497681
 ,10.3811807484\Mo,0.4123808083,3.1358874797,9.5643349212\S,-0.83023415

 Normal termination of Gaussian 16 at Sat Dec 10 14:39:20 2022.
