 Gaussian 16, Revision C.01,
 Gaussian 16:  ES64L-G16RevC.01  3-Jul-2019

 ---------------------------------------
 # opt freq b3lyp/gen nosymm pseudo=read
 ---------------------------------------

 -------------------
 Title Card Required
 -------------------
 Symbolic Z-matrix:
 Charge =  0 Multiplicity = 1

 SCF Done:  E(RB3LYP) =  -7776.27317227     A.U. after   41 cycles
 SCF Done:  E(RB3LYP) =  -7776.27360074     A.U. after   23 cycles
 SCF Done:  E(RB3LYP) =  -7776.27372140     A.U. after   23 cycles
 SCF Done:  E(RB3LYP) =  -7776.27378650     A.U. after   23 cycles
 SCF Done:  E(RB3LYP) =  -7776.27383327     A.U. after   25 cycles
 SCF Done:  E(RB3LYP) =  -7776.27384711     A.U. after   23 cycles
 SCF Done:  E(RB3LYP) =  -7776.27385385     A.U. after   23 cycles
 SCF Done:  E(RB3LYP) =  -7776.27385962     A.U. after   22 cycles
 SCF Done:  E(RB3LYP) =  -7776.27386227     A.U. after   22 cycles
 SCF Done:  E(RB3LYP) =  -7776.27386440     A.U. after   22 cycles
 SCF Done:  E(RB3LYP) =  -7776.27386590     A.U. after   23 cycles
 SCF Done:  E(RB3LYP) =  -7776.27386660     A.U. after   22 cycles
 SCF Done:  E(RB3LYP) =  -7776.27386720     A.U. after   21 cycles
 Optimization completed.
    -- Stationary point found.
 Normal termination of Gaussian 16 at Wed Jan 18 16:15:06 2023.

 ------------------------------------------------------------------
 #N Geom=AllCheck Guess=TCheck SCRF=Check GenChk RB3LYP/ChkBas Freq
 ------------------------------------------------------------------

 Structure from the checkpoint file:  "/home/chesagar/scratch/Gau-64159.chk"
 -------------------
 Title Card Required
 -------------------
 Charge =  0 Multiplicity = 1

                          Input orientation:
 ---------------------------------------------------------------------
 Center     Atomic      Atomic             Coordinates (Angstroms)
 Number     Number       Type             X           Y           Z
 ---------------------------------------------------------------------
      1         42           0        0.373796    1.953923   12.122055
      2         16           0        1.372622    4.033130   11.730920
      3         16           0       -1.583837    2.534516   13.253050
      4         16           0       -0.550212    1.092955   10.096956
      5         16           0        2.148632    0.277819   11.469414
      6         42           0       -2.151864    2.648869   10.958762
      7         16           0       -3.353390    1.820395    8.927487
      8         16           0       -1.431783    4.796967   10.476030
      9         42           0        0.435757    3.259158    9.576029
     10         16           0       -0.745813    2.958210    7.342171
     11         16           0        2.230977    1.852099    8.579210
     12         42           0        2.946951    2.556847   10.849217
     13         42           0       -2.552791    4.129341    8.576398
     14         16           0        4.427362    2.564260   12.908516
     15         16           0        4.743154    4.035071   10.069611
     16         16           0       -4.621795    5.231131    8.873073
     17         16           0       -1.924345    6.344033    7.447814
     18         42           0       -4.963536    3.175964    9.845534
     19         16           0       -6.903315    2.436743    9.399230
     20         16           0       -4.422396    3.270615   11.998085
     21         42           0        2.967713    0.987863   13.510128
     22         16           0        3.899256   -0.553850   14.626536
     23         16           0        1.230601    1.878264   14.554502
     24         42           0       -0.081169    5.175948    7.130955
     25         16           0        0.839419    5.448973    5.237403
     26         16           0        1.498823    5.594758    8.827218
     27         42           0        3.116022    3.995729    8.543084
 ---------------------------------------------------------------------

 SCF Done:  E(RB3LYP) =  -7776.27386720     A.U. after    3 cycles

 Alpha  occ. eigenvalues --  -88.94083 -88.92724 -88.92675 -88.92047 -88.91949
 Alpha  occ. eigenvalues --  -88.91785 -88.91664 -88.91583 -88.90341 -88.89965
 Alpha  occ. eigenvalues --  -88.89620 -88.89600 -88.89476 -88.89280 -88.89138
 Alpha  occ. eigenvalues --  -88.89125 -88.88205 -88.87951  -8.01486  -8.00217
 Alpha  occ. eigenvalues --   -8.00051  -7.99566  -7.99423  -7.99195  -7.99191
 Alpha  occ. eigenvalues --   -7.99029  -7.98062  -7.97679  -7.97390  -7.97347
 Alpha  occ. eigenvalues --   -7.97333  -7.96884  -7.96872  -7.96834  -7.96103
 Alpha  occ. eigenvalues --   -7.95824  -5.97536  -5.97442  -5.97388  -5.96312
 Alpha  occ. eigenvalues --   -5.96198  -5.96076  -5.96043  -5.96036  -5.95971
 Alpha  occ. eigenvalues --   -5.95589  -5.95560  -5.95450  -5.95440  -5.95413
 Alpha  occ. eigenvalues --   -5.95311  -5.95251  -5.95227  -5.95180  -5.95178
 Alpha  occ. eigenvalues --   -5.95067  -5.95059  -5.95057  -5.95009  -5.94931
 Alpha  occ. eigenvalues --   -5.94111  -5.94019  -5.93906  -5.93736  -5.93614
 Alpha  occ. eigenvalues --   -5.93532  -5.93437  -5.93410  -5.93374  -5.93344
 Alpha  occ. eigenvalues --   -5.93302  -5.93241  -5.93233  -5.93227  -5.93147
 Alpha  occ. eigenvalues --   -5.93003  -5.92986  -5.92968  -5.92829  -5.92820
 Alpha  occ. eigenvalues --   -5.92756  -5.92663  -5.92661  -5.92651  -5.92087
 Alpha  occ. eigenvalues --   -5.92042  -5.91991  -5.91847  -5.91760  -5.91680
 Alpha  occ. eigenvalues --   -2.57348  -2.57312  -2.56973  -2.55994  -2.55749
 Alpha  occ. eigenvalues --   -2.55101  -2.54906  -2.54259  -2.54184  -1.60470
 Alpha  occ. eigenvalues --   -1.60061  -1.59907  -1.59698  -1.59618  -1.59549
 Alpha  occ. eigenvalues --   -1.59467  -1.59249  -1.59078  -1.58885  -1.58541
 Alpha  occ. eigenvalues --   -1.58495  -1.58269  -1.58257  -1.58066  -1.57880
 Alpha  occ. eigenvalues --   -1.57735  -1.57139  -1.57004  -1.56924  -1.56782
 Alpha  occ. eigenvalues --   -1.56496  -1.56314  -1.56162  -1.56057  -1.55853
 Alpha  occ. eigenvalues --   -1.54990  -0.77865  -0.75999  -0.75615  -0.75268
 Alpha  occ. eigenvalues --   -0.74660  -0.74426  -0.73783  -0.73646  -0.72745
 Alpha  occ. eigenvalues --   -0.72367  -0.72267  -0.72010  -0.71666  -0.71121
 Alpha  occ. eigenvalues --   -0.70604  -0.70426  -0.69399  -0.69178  -0.45118
 Alpha  occ. eigenvalues --   -0.44899  -0.44491  -0.43791  -0.42629  -0.42188
 Alpha  occ. eigenvalues --   -0.42040  -0.41943  -0.41537  -0.41322  -0.41096
 Alpha  occ. eigenvalues --   -0.40764  -0.40414  -0.39821  -0.39637  -0.39391
 Alpha  occ. eigenvalues --   -0.39207  -0.39048  -0.38566  -0.38293  -0.38120
 Alpha  occ. eigenvalues --   -0.37971  -0.37707  -0.37458  -0.37214  -0.36869
 Alpha  occ. eigenvalues --   -0.36754  -0.36150  -0.36126  -0.36055  -0.35708
 Alpha  occ. eigenvalues --   -0.35559  -0.35410  -0.35216  -0.34943  -0.34828
 Alpha  occ. eigenvalues --   -0.34617  -0.34057  -0.33655  -0.33319  -0.33239
 Alpha  occ. eigenvalues --   -0.32992  -0.32750  -0.32362  -0.32023  -0.31557
 Alpha  occ. eigenvalues --   -0.31184  -0.31045  -0.30707  -0.29957  -0.29488
 Alpha  occ. eigenvalues --   -0.29479  -0.29118  -0.28735  -0.28164  -0.27448
 Alpha  occ. eigenvalues --   -0.26920  -0.26469  -0.25816  -0.25210  -0.25019
 Alpha  occ. eigenvalues --   -0.23604  -0.22299
 Alpha virt. eigenvalues --   -0.17635  -0.17343  -0.16446  -0.15974  -0.15070
 Alpha virt. eigenvalues --   -0.15018  -0.14802  -0.14427  -0.14174  -0.13974
 Alpha virt. eigenvalues --   -0.13667  -0.13289  -0.12727  -0.12591  -0.12408

 Mulliken charges:
               1
     1  Mo  -0.225380
     2  S    0.344742
     3  S    0.040192
     4  S    0.200626
     5  S    0.078468
     6  Mo  -0.222045
     7  S    0.124268
     8  S    0.310882
     9  Mo  -0.834030
    10  S    0.107983
    11  S    0.158210
    12  Mo  -0.256195
    13  Mo  -0.294510
    14  S   -0.021693
    15  S   -0.062178
    16  S    0.019522
    17  S   -0.011133
    18  Mo   0.285276
    19  S   -0.216850
    20  S   -0.025263
    21  Mo   0.314397
    22  S   -0.194916
    23  S   -0.028716
    24  Mo   0.265181
    25  S   -0.197727
    26  S   -0.026548
    27  Mo   0.367435
 Sum of Mulliken charges =  -0.00000

 Dipole moment (field-independent basis, Debye):
    X=              2.2310    Y=              0.9113    Z=             -3.2967  Tot=              4.0836
 Quadrupole moment (field-independent basis, Debye-Ang):
   XX=           -452.8837   YY=           -437.1947   ZZ=           -516.5283
   XY=             13.2958   XZ=             11.2122   YZ=              0.3475

  Exact polarizability:    1055.549     -74.287     551.061     113.261    -216.613     767.712
 Approx polarizability:    3445.976    -134.887    1814.716      55.314    -637.982    2580.776

                      1                      2                      3
                      A                      A                      A
 Frequencies --     28.1037                40.0492                44.0399
 Red. masses --     43.0272                40.1805                39.4609
 Frc consts  --      0.0200                 0.0380                 0.0451
 IR Inten    --      0.2903                 0.4955                 0.1652

                      4                      5                      6
                      A                      A                      A
 Frequencies --     55.6585                57.1701                61.9025
 Red. masses --     41.7111                38.8817                35.0817
 Frc consts  --      0.0761                 0.0749                 0.0792
 IR Inten    --      0.8740                 0.0806                 0.0758

                      7                      8                      9
                      A                      A                      A
 Frequencies --     73.1142                78.7433                79.9779
 Red. masses --     40.1926                46.8157                42.0590
 Frc consts  --      0.1266                 0.1710                 0.1585
 IR Inten    --      0.0542                 1.1318                 0.2855

                     10                     11                     12
                      A                      A                      A
 Frequencies --     84.9218                87.8010                92.4136
 Red. masses --     38.4800                46.6376                40.8518
 Frc consts  --      0.1635                 0.2118                 0.2056
 IR Inten    --      0.5316                 0.2562                 1.0866

                     13                     14                     15
                      A                      A                      A
 Frequencies --     96.0380               102.7058               104.1985
 Red. masses --     43.3820                43.1834                45.0089
 Frc consts  --      0.2357                 0.2684                 0.2879
 IR Inten    --      2.1484                 0.8649                 0.7196

                     16                     17                     18
                      A                      A                      A
 Frequencies --    113.2319               120.8318               122.8793
 Red. masses --     47.2988                53.2768                54.3437
 Frc consts  --      0.3573                 0.4583                 0.4835
 IR Inten    --      2.6055                 2.3986                 6.6549

                     19                     20                     21
                      A                      A                      A
 Frequencies --    128.2742               133.2921               135.6529
 Red. masses --     50.1606                49.9919                46.3778
 Frc consts  --      0.4863                 0.5233                 0.5028
 IR Inten    --      0.2421                 1.8507                 1.5013

                     22                     23                     24
                      A                      A                      A
 Frequencies --    141.3630               143.3389               148.8393
 Red. masses --     39.4202                49.6415                45.3072
 Frc consts  --      0.4641                 0.6009                 0.5914
 IR Inten    --      0.1518                 1.3610                 4.3333

                     25                     26                     27
                      A                      A                      A
 Frequencies --    152.8030               157.7572               158.0672
 Red. masses --     45.7383                47.3338                48.3425
 Frc consts  --      0.6292                 0.6941                 0.7116
 IR Inten    --      1.9925                 2.1181                 0.7511

                     28                     29                     30
                      A                      A                      A
 Frequencies --    162.6499               166.1020               172.2700
 Red. masses --     46.0962                42.4764                43.6149
 Frc consts  --      0.7185                 0.6905                 0.7626
 IR Inten    --      0.3635                 2.1026                 1.0743

                     31                     32                     33
                      A                      A                      A
 Frequencies --    179.6244               188.7383               193.0159
 Red. masses --     53.1442                42.5774                51.0422
 Frc consts  --      1.0103                 0.8936                 1.1204
 IR Inten    --      1.2049                 4.2460                 0.1161

                     34                     35                     36
                      A                      A                      A
 Frequencies --    195.9280               205.5557               206.7239
 Red. masses --     39.5044                48.7991                44.2412
 Frc consts  --      0.8935                 1.2148                 1.1139
 IR Inten    --      1.3044                11.9657                 2.4508

                     37                     38                     39
                      A                      A                      A
 Frequencies --    221.8232               225.6367               236.5639
 Red. masses --     39.9404                36.9130                35.6549
 Frc consts  --      1.1579                 1.1073                 1.1756
 IR Inten    --      3.4911                 0.7121                 3.1696

                     40                     41                     42
                      A                      A                      A
 Frequencies --    246.0836               253.3482               261.4782
 Red. masses --     35.1451                40.3115                39.5485
 Frc consts  --      1.2539                 1.5245                 1.5931
 IR Inten    --      1.8455                 0.5059                 2.5501

                     43                     44                     45
                      A                      A                      A
 Frequencies --    266.8952               270.4802               275.1212
 Red. masses --     37.0383                38.4916                37.6393
 Frc consts  --      1.5545                 1.6592                 1.6786
 IR Inten    --      2.2168                 1.3119                 0.5468

                     46                     47                     48
                      A                      A                      A
 Frequencies --    280.1218               291.1253               293.6930
 Red. masses --     35.3012                36.9115                40.4076
 Frc consts  --      1.6321                 1.8432                 2.0535
 IR Inten    --      0.0748                 1.4187                 4.4936

                     49                     50                     51
                      A                      A                      A
 Frequencies --    297.8754               305.8248               310.5081
 Red. masses --     36.6195                35.5131                36.8842
 Frc consts  --      1.9144                 1.9570                 2.0953
 IR Inten    --      4.1303                 1.8710                 1.6950

                     52                     53                     54
                      A                      A                      A
 Frequencies --    313.8355               327.2210               343.9059
 Red. masses --     36.2239                40.6115                35.6116
 Frc consts  --      2.1021                 2.5620                 2.4815
 IR Inten    --      3.3622                 5.4491                 0.1180

                     55                     56                     57
                      A                      A                      A
 Frequencies --    356.6352               365.6667               373.1367
 Red. masses --     37.6310                39.4754                38.3617
 Frc consts  --      2.8200                 3.1099                 3.1469
 IR Inten    --      0.3575                 1.4040                 1.6976

                     58                     59                     60
                      A                      A                      A
 Frequencies --    380.1899               409.9984               412.0364
 Red. masses --     36.8200                35.8062                37.3369
 Frc consts  --      3.1357                 3.5463                 3.7347
 IR Inten    --      0.1253                 2.2129                 0.6222

                     61                     62                     63
                      A                      A                      A
 Frequencies --    417.9164               424.7115               427.3265
 Red. masses --     37.3839                37.9622                34.2637
 Frc consts  --      3.8469                 4.0345                 3.6864
 IR Inten    --      2.3006                 1.2731                 6.7603

                     64                     65                     66
                      A                      A                      A
 Frequencies --    432.5017               438.5576               448.7887
 Red. masses --     35.4306                37.2161                38.8047
 Frc consts  --      3.9048                 4.2173                 4.6049
 IR Inten    --      1.4583                 0.9580                12.3437

                     67                     68                     69
                      A                      A                      A
 Frequencies --    451.7569               458.1113               465.0643
 Red. masses --     38.5224                38.7623                39.0232
 Frc consts  --      4.6320                 4.7929                 4.9728
 IR Inten    --      4.2218                 3.2964                23.0737

                     70                     71                     72
                      A                      A                      A
 Frequencies --    471.6398               477.5018               480.4584
 Red. masses --     39.3253                39.4545                38.9130
 Frc consts  --      5.1540                 5.3003                 5.2925
 IR Inten    --     10.2420                19.0579                15.9338

                     73                     74                     75
                      A                      A                      A
 Frequencies --    553.8428               561.3731               564.4552
 Red. masses --     39.6168                40.0095                39.9866
 Frc consts  --      7.1598                 7.4288                 7.5063
 IR Inten    --    130.8748               232.5672               119.8275

 - Thermochemistry -
 -------------------
 Temperature   298.150 Kelvin.  Pressure   1.00000 Atm.
 Atom     1 has atomic number 42 and mass  97.90550

 Molecular mass:  1456.64679 amu.
 Principal axes and moments of inertia in atomic units:
                           1         2         3
     Eigenvalues --  ******************************
           X            0.86630  -0.49953   0.00184
           Y           -0.26573  -0.45771   0.84846
           Z            0.42298   0.73551   0.52925
 This molecule is an asymmetric top.
 Rotational symmetry number  1.
 Warning -- assumption of classical behavior for rotation
           may cause significant error
 Rotational temperatures (Kelvin)      0.00296     0.00165     0.00117
 Rotational constants (GHZ):           0.06172     0.03436     0.02433
 Zero-point vibrational energy     112490.8 (Joules/Mol)
                                   26.88594 (Kcal/Mol)
 Warning -- explicit consideration of  75 degrees of freedom as
           vibrations may cause significant error
 Vibrational temperatures:     40.43    57.62    63.36    80.08    82.25
          (Kelvin)             89.06   105.19   113.29   115.07   122.18
                              126.33   132.96   138.18   147.77   149.92
                              162.92   173.85   176.80   184.56   191.78
                              195.17   203.39   206.23   214.15   219.85
                              226.98   227.42   234.02   238.98   247.86
                              258.44   271.55   277.71   281.90   295.75
                              297.43   319.15   324.64   340.36   354.06
                              364.51   376.21   384.00   389.16   395.84
                              403.03   418.86   422.56   428.58   440.01
                              446.75   451.54   470.80   494.80   513.12
                              526.11   536.86   547.01   589.90   592.83
                              601.29   611.07   614.83   622.27   630.99
                              645.71   649.98   659.12   669.12   678.58
                              687.02   691.27   796.86   807.69   812.13

 Zero-point correction=                           0.042845 (Hartree/Particle)
 Thermal correction to Energy=                    0.084523
 Thermal correction to Enthalpy=                  0.085468
 Thermal correction to Gibbs Free Energy=        -0.033678
 Sum of electronic and zero-point Energies=          -7776.231022
 Sum of electronic and thermal Energies=             -7776.189344
 Sum of electronic and thermal Enthalpies=           -7776.188400
 Sum of electronic and thermal Free Energies=        -7776.307545

                     E (Thermal)             CV                S
                      KCal/Mol        Cal/Mol-Kelvin    Cal/Mol-Kelvin
 Total                   53.039            134.657            250.763
 Electronic               0.000              0.000              0.000
 Translational            0.889              2.981             47.703
 Rotational               0.889              2.981             39.962
 Vibrational             51.262            128.696            163.098
 Vibration     1          0.593              1.984              5.959
 Vibration     2          0.594              1.981              5.257
 Vibration     3          0.595              1.980              5.069
 Vibration     4          0.596              1.975              4.605
 Vibration     5          0.596              1.975              4.553
 Vibration     6          0.597              1.972              4.396
 Vibration     7          0.599              1.967              4.068
 Vibration     8          0.600              1.963              3.922
 Vibration     9          0.600              1.963              3.891
 Vibration    10          0.601              1.960              3.774
 Vibration    11          0.601              1.958              3.708
 Vibration    12          0.602              1.955              3.608
 Vibration    13          0.603              1.952              3.533
 Vibration    14          0.605              1.947              3.402
 Vibration    15          0.605              1.946              3.374
 Vibration    16          0.607              1.938              3.213
 Vibration    17          0.609              1.932              3.087
 Vibration    18          0.610              1.930              3.055
 Vibration    19          0.611              1.925              2.972
 Vibration    20          0.613              1.920              2.898
 Vibration    21          0.613              1.918              2.864
 Vibration    22          0.615              1.912              2.785
 Vibration    23          0.616              1.910              2.759
 Vibration    24          0.618              1.904              2.687
 Vibration    25          0.619              1.900              2.637
 Vibration    26          0.621              1.894              2.577
 Vibration    27          0.621              1.894              2.573
 Vibration    28          0.623              1.888              2.519
 Vibration    29          0.624              1.884              2.479
 Vibration    30          0.626              1.877              2.411
 Vibration    31          0.629              1.867              2.332
 Vibration    32          0.633              1.855              2.240
 Vibration    33          0.635              1.850              2.199
 Vibration    34          0.636              1.846              2.171
 Vibration    35          0.640              1.832              2.083
 Vibration    36          0.641              1.830              2.072
 Vibration    37          0.648              1.808              1.944
 Vibration    38          0.650              1.802              1.913
 Vibration    39          0.655              1.785              1.829
 Vibration    40          0.661              1.769              1.758
 Vibration    41          0.665              1.757              1.707
 Vibration    42          0.669              1.743              1.652
 Vibration    43          0.672              1.734              1.616
 Vibration    44          0.674              1.728              1.593
 Vibration    45          0.677              1.719              1.564
 Vibration    46          0.680              1.710              1.533
 Vibration    47          0.687              1.690              1.467
 Vibration    48          0.688              1.685              1.453
 Vibration    49          0.691              1.678              1.429
 Vibration    50          0.696              1.663              1.385
 Vibration    51          0.699              1.654              1.360
 Vibration    52          0.702              1.647              1.342
 Vibration    53          0.711              1.621              1.274
 Vibration    54          0.723              1.588              1.194
 Vibration    55          0.732              1.562              1.137
 Vibration    56          0.739              1.543              1.098
 Vibration    57          0.745              1.527              1.067
 Vibration    58          0.750              1.512              1.038
 Vibration    59          0.774              1.449              0.927
 Vibration    60          0.776              1.444              0.919
 Vibration    61          0.781              1.431              0.899
 Vibration    62          0.787              1.416              0.876
 Vibration    63          0.789              1.411              0.867
 Vibration    64          0.793              1.399              0.851
 Vibration    65          0.799              1.386              0.831
 Vibration    66          0.808              1.364              0.799
 Vibration    67          0.810              1.357              0.790
 Vibration    68          0.816              1.343              0.772
 Vibration    69          0.823              1.328              0.752
 Vibration    70          0.829              1.313              0.733
 Vibration    71          0.834              1.300              0.717
 Vibration    72          0.837              1.293              0.709
 Vibration    73          0.909              1.131              0.536
 Vibration    74          0.917              1.115              0.521
 Vibration    75          0.920              1.108              0.515

                           ! Non-Optimized Parameters !
 Normal termination of Gaussian 16 at Wed Jan 18 16:26:03 2023.
