 Gaussian 16, Revision C.01,
 Gaussian 16:  ES64L-G16RevC.01  3-Jul-2019

 ---------------------------------------
 # opt freq b3lyp/gen nosymm pseudo=read
 ---------------------------------------

 -------------------
 Title Card Required
 -------------------
 Symbolic Z-matrix:
 Charge =  0 Multiplicity = 1

 SCF Done:  E(RB3LYP) =  -8175.68783919     A.U. after   38 cycles
 SCF Done:  E(RB3LYP) =  -8175.69164670     A.U. after   25 cycles
 SCF Done:  E(RB3LYP) =  -8175.69667263     A.U. after   25 cycles
 SCF Done:  E(RB3LYP) =  -8175.69884619     A.U. after   25 cycles
 SCF Done:  E(RB3LYP) =  -8175.70239323     A.U. after   26 cycles
 SCF Done:  E(RB3LYP) =  -8175.70340554     A.U. after   25 cycles
 SCF Done:  E(RB3LYP) =  -8175.70366708     A.U. after   23 cycles
 SCF Done:  E(RB3LYP) =  -8175.70426588     A.U. after   24 cycles
 SCF Done:  E(RB3LYP) =  -8175.70439924     A.U. after   22 cycles
 SCF Done:  E(RB3LYP) =  -8175.70453830     A.U. after   21 cycles
 SCF Done:  E(RB3LYP) =  -8175.70520438     A.U. after   18 cycles
 SCF Done:  E(RB3LYP) =  -8175.70520506     A.U. after   15 cycles
 SCF Done:  E(RB3LYP) =  -8175.70520567     A.U. after   15 cycles
 SCF Done:  E(RB3LYP) =  -8175.70520595     A.U. after   15 cycles
 SCF Done:  E(RB3LYP) =  -8175.70520608     A.U. after   14 cycles
 SCF Done:  E(RB3LYP) =  -8175.70520619     A.U. after   14 cycles
 SCF Done:  E(RB3LYP) =  -8175.70520632     A.U. after   14 cycles
 SCF Done:  E(RB3LYP) =  -8175.70520640     A.U. after   13 cycles
 SCF Done:  E(RB3LYP) =  -8175.70520645     A.U. after   13 cycles
 Optimization completed.
    -- Stationary point found.
 Normal termination of Gaussian 16 at Sat Dec 10 17:26:32 2022.

 ------------------------------------------------------------------
 #N Geom=AllCheck Guess=TCheck SCRF=Check GenChk RB3LYP/ChkBas Freq
 ------------------------------------------------------------------

 Structure from the checkpoint file:  "/home/chesagar/scratch/Gau-195482.chk"
 -------------------
 Title Card Required
 -------------------
 Charge =  0 Multiplicity = 1

                          Input orientation:
 ---------------------------------------------------------------------
 Center     Atomic      Atomic             Coordinates (Angstroms)
 Number     Number       Type             X           Y           Z
 ---------------------------------------------------------------------
      1         42           0        0.290580    1.866882   12.134866
      2         16           0        1.264913    3.960570   11.775649
      3         16           0       -1.657812    2.461470   13.286795
      4         16           0       -0.618811    1.078374   10.078260
      5         16           0        2.021764    0.165293   11.487736
      6         42           0       -2.198525    2.631894   11.001259
      7         16           0       -3.431738    1.813386    8.983814
      8         16           0       -1.478579    4.792119   10.516085
      9         42           0        0.355191    3.251888    9.570508
     10         16           0       -0.832479    2.900142    7.347104
     11         16           0        2.231486    1.875149    8.665902
     12         42           0        2.843153    2.441768   10.988482
     13         42           0       -2.579669    4.108369    8.608209
     14         16           0        4.299886    2.535185   12.978811
     15         16           0        4.540369    4.150627   10.271552
     16         16           0       -4.671608    5.219857    8.915519
     17         16           0       -2.018780    6.302458    7.460112
     18         42           0       -5.020255    3.189952    9.907534
     19         16           0       -6.978434    2.468790    9.511075
     20         16           0       -4.458917    3.306895   12.049526
     21         42           0        2.885601    0.861575   13.508637
     22         16           0        3.895791   -0.705318   14.526283
     23         16           0        1.128290    1.673815   14.583919
     24         42           0       -0.202809    5.113909    7.084010
     25         16           0        0.574929    5.396112    5.128200
     26         16           0        1.376512    5.598673    8.745733
     27         42           0        3.083235    4.055386    8.628175
     28         16           0        4.466064    4.344380    6.589808
     29          1           0        5.259317    5.440755    6.671387
     30          1           0        5.495955    3.475675    6.685512
 ---------------------------------------------------------------------

 SCF Done:  E(RB3LYP) =  -8175.70520645     A.U. after    3 cycles

 Alpha  occ. eigenvalues --  -88.97071 -88.92968 -88.92216 -88.92113 -88.91592
 Alpha  occ. eigenvalues --  -88.91250 -88.91090 -88.90807 -88.90424 -88.90002
 Alpha  occ. eigenvalues --  -88.89592 -88.89070 -88.88873 -88.88842 -88.88428
 Alpha  occ. eigenvalues --  -88.88321 -88.88260 -88.87283 -88.87007  -8.04675
 Alpha  occ. eigenvalues --   -8.00331  -7.99682  -7.99540  -7.99048  -7.98774
 Alpha  occ. eigenvalues --   -7.98488  -7.98345  -7.97814  -7.97719  -7.97350
 Alpha  occ. eigenvalues --   -7.96785  -7.96737  -7.96574  -7.96067  -7.95984
 Alpha  occ. eigenvalues --   -7.95969  -7.95160  -7.94896  -6.00970  -6.00724
 Alpha  occ. eigenvalues --   -6.00238  -5.96374  -5.96296  -5.96243  -5.95775
 Alpha  occ. eigenvalues --   -5.95665  -5.95576  -5.95514  -5.95507  -5.95460
 Alpha  occ. eigenvalues --   -5.95085  -5.95036  -5.94929  -5.94800  -5.94763
 Alpha  occ. eigenvalues --   -5.94648  -5.94537  -5.94489  -5.94369  -5.94353
 Alpha  occ. eigenvalues --   -5.94330  -5.94225  -5.93855  -5.93811  -5.93771
 Alpha  occ. eigenvalues --   -5.93703  -5.93677  -5.93559  -5.93407  -5.93312
 Alpha  occ. eigenvalues --   -5.93176  -5.92856  -5.92750  -5.92716  -5.92668
 Alpha  occ. eigenvalues --   -5.92653  -5.92629  -5.92628  -5.92530  -5.92370
 Alpha  occ. eigenvalues --   -5.92175  -5.92120  -5.92069  -5.92015  -5.91911
 Alpha  occ. eigenvalues --   -5.91907  -5.91854  -5.91804  -5.91783  -5.91177
 Alpha  occ. eigenvalues --   -5.91094  -5.91025  -5.90897  -5.90832  -5.90772
 Alpha  occ. eigenvalues --   -2.57128  -2.56341  -2.56107  -2.55016  -2.54717
 Alpha  occ. eigenvalues --   -2.54471  -2.53920  -2.53751  -2.53240  -1.60056
 Alpha  occ. eigenvalues --   -1.59461  -1.59216  -1.58980  -1.58914  -1.58812
 Alpha  occ. eigenvalues --   -1.58527  -1.58458  -1.58250  -1.58040  -1.57909
 Alpha  occ. eigenvalues --   -1.57773  -1.57625  -1.57287  -1.57042  -1.56840
 Alpha  occ. eigenvalues --   -1.56740  -1.56394  -1.56285  -1.55992  -1.55709
 Alpha  occ. eigenvalues --   -1.55617  -1.55371  -1.55330  -1.55171  -1.54978
 Alpha  occ. eigenvalues --   -1.54794  -0.83794  -0.77006  -0.75117  -0.74836
 Alpha  occ. eigenvalues --   -0.74664  -0.74099  -0.73665  -0.73062  -0.72705
 Alpha  occ. eigenvalues --   -0.72177  -0.71858  -0.71649  -0.71225  -0.70881
 Alpha  occ. eigenvalues --   -0.70317  -0.70082  -0.69613  -0.68526  -0.68263
 Alpha  occ. eigenvalues --   -0.53123  -0.47760  -0.44254  -0.44158  -0.43696
 Alpha  occ. eigenvalues --   -0.43011  -0.41830  -0.41396  -0.41381  -0.41229
 Alpha  occ. eigenvalues --   -0.40756  -0.40609  -0.40309  -0.40053  -0.39661
 Alpha  occ. eigenvalues --   -0.39330  -0.39004  -0.38983  -0.38703  -0.38299
 Alpha  occ. eigenvalues --   -0.37881  -0.37672  -0.37368  -0.37306  -0.37028
 Alpha  occ. eigenvalues --   -0.36960  -0.36750  -0.36598  -0.36331  -0.36002
 Alpha  occ. eigenvalues --   -0.35535  -0.35368  -0.35247  -0.34940  -0.34804
 Alpha  occ. eigenvalues --   -0.34659  -0.34467  -0.34082  -0.34041  -0.33779
 Alpha  occ. eigenvalues --   -0.33392  -0.32872  -0.32755  -0.32553  -0.32420
 Alpha  occ. eigenvalues --   -0.32068  -0.31641  -0.31193  -0.30799  -0.30466
 Alpha  occ. eigenvalues --   -0.30279  -0.29868  -0.29204  -0.28784  -0.28455
 Alpha  occ. eigenvalues --   -0.28252  -0.27932  -0.27312  -0.26680  -0.25643
 Alpha  occ. eigenvalues --   -0.25381  -0.24999  -0.24174  -0.24118  -0.23188
 Alpha  occ. eigenvalues --   -0.22255
 Alpha virt. eigenvalues --   -0.16960  -0.15975  -0.15637  -0.14789  -0.14579
 Alpha virt. eigenvalues --   -0.14215  -0.13913  -0.13731  -0.13205  -0.13094
 Alpha virt. eigenvalues --   -0.13066  -0.12425  -0.12015  -0.11782  -0.11616

 Mulliken charges:
               1
     1  Mo  -0.212442
     2  S    0.348573
     3  S    0.031171
     4  S    0.193924
     5  S    0.089280
     6  Mo  -0.212669
     7  S    0.110126
     8  S    0.308428
     9  Mo  -0.774133
    10  S    0.111126
    11  S    0.131401
    12  Mo  -0.319742
    13  Mo  -0.299386
    14  S   -0.025119
    15  S   -0.023725
    16  S    0.003924
    17  S    0.004315
    18  Mo   0.296555
    19  S   -0.221538
    20  S   -0.031149
    21  Mo   0.302362
    22  S   -0.221072
    23  S   -0.041652
    24  Mo   0.271243
    25  S   -0.214042
    26  S   -0.050873
    27  Mo   0.141705
    28  S    0.026284
    29  H    0.132039
    30  H    0.145087
 Sum of Mulliken charges =  -0.00000

 Dipole moment (field-independent basis, Debye):
    X=              6.6708    Y=              2.2221    Z=             -6.4642  Tot=              9.5511
 Quadrupole moment (field-independent basis, Debye-Ang):
   XX=           -444.4371   YY=           -444.7516   ZZ=           -593.0519
   XY=             35.9121   XZ=             34.5179   YZ=              3.7952

  Exact polarizability:    1110.361     -64.167     571.853      76.475    -233.683     811.685
 Approx polarizability:    3410.236    -121.778    1876.463      70.817    -685.055    2668.844

                      1                      2                      3
                      A                      A                      A
 Frequencies --     22.6265                30.2886                36.0050
 Red. masses --     19.3320                16.7714                 6.8071
 Frc consts  --      0.0058                 0.0091                 0.0052
 IR Inten    --      1.7766                 0.8643                 2.8955

                      4                      5                      6
                      A                      A                      A
 Frequencies --     44.9432                50.8302                57.9529
 Red. masses --     36.9501                33.9607                34.2799
 Frc consts  --      0.0440                 0.0517                 0.0678
 IR Inten    --      0.2228                 0.1546                 0.3323

                      7                      8                      9
                      A                      A                      A
 Frequencies --     61.3194                71.8243                76.0854
 Red. masses --     30.7298                21.8720                29.0047
 Frc consts  --      0.0681                 0.0665                 0.0989
 IR Inten    --      0.5944                 1.3913                 0.4981

                     10                     11                     12
                      A                      A                      A
 Frequencies --     78.3674                82.8729                83.9649
 Red. masses --     37.0330                37.8110                36.0063
 Frc consts  --      0.1340                 0.1530                 0.1496
 IR Inten    --      2.1034                 1.3589                 1.3572

                     13                     14                     15
                      A                      A                      A
 Frequencies --     92.8010                93.8731               100.7807
 Red. masses --     21.3046                39.9998                42.7004
 Frc consts  --      0.1081                 0.2077                 0.2555
 IR Inten    --      0.2878                 0.7173                 1.3042

                     16                     17                     18
                      A                      A                      A
 Frequencies --    105.5374               107.1753               116.4652
 Red. masses --     39.9187                42.1142                42.1470
 Frc consts  --      0.2620                 0.2850                 0.3368
 IR Inten    --      0.2347                 4.3501                 5.6070

                     19                     20                     21
                      A                      A                      A
 Frequencies --    122.1735               126.4331               130.5639
 Red. masses --     50.2294                26.7229                35.2485
 Frc consts  --      0.4417                 0.2517                 0.3540
 IR Inten    --      8.2483                 0.9417                 0.3058

                     22                     23                     24
                      A                      A                      A
 Frequencies --    134.7194               138.5799               142.1302
 Red. masses --     33.8874                30.2165                41.4477
 Frc consts  --      0.3624                 0.3419                 0.4933
 IR Inten    --      2.5055                 5.1446                 1.1464

                     25                     26                     27
                      A                      A                      A
 Frequencies --    144.6326               147.1295               151.9328
 Red. masses --     38.2864                15.9952                37.5084
 Frc consts  --      0.4719                 0.2040                 0.5101
 IR Inten    --      0.7565                 1.2571                15.3615

                     28                     29                     30
                      A                      A                      A
 Frequencies --    154.4692               156.8567               165.2576
 Red. masses --     43.7231                18.4340                43.6146
 Frc consts  --      0.6147                 0.2672                 0.7018
 IR Inten    --      0.6322                 0.3989                 0.6084

                     31                     32                     33
                      A                      A                      A
 Frequencies --    167.3843               172.0708               179.8731
 Red. masses --     31.6613                12.1854                 6.5470
 Frc consts  --      0.5226                 0.2126                 0.1248
 IR Inten    --      1.3861                 1.8659                 4.3754

                     34                     35                     36
                      A                      A                      A
 Frequencies --    181.3860               188.2071               193.7731
 Red. masses --      1.9134                30.5681                27.2943
 Frc consts  --      0.0371                 0.6380                 0.6038
 IR Inten    --      8.1972                 1.2719                11.7450

                     37                     38                     39
                      A                      A                      A
 Frequencies --    198.3115               202.7437               209.1663
 Red. masses --     46.1367                38.0482                44.7437
 Frc consts  --      1.0690                 0.9215                 1.1534
 IR Inten    --      8.8420                 6.6414                 1.0399

                     40                     41                     42
                      A                      A                      A
 Frequencies --    219.7236               227.1145               232.8046
 Red. masses --     23.0313                34.0479                30.1878
 Frc consts  --      0.6551                 1.0347                 0.9640
 IR Inten    --      0.8567                 0.4763                 2.7170

                     43                     44                     45
                      A                      A                      A
 Frequencies --    244.4521               251.1488               263.2732
 Red. masses --     26.7407                33.4601                38.5856
 Frc consts  --      0.9415                 1.2435                 1.5758
 IR Inten    --      1.6960                 0.2887                 1.3125

                     46                     47                     48
                      A                      A                      A
 Frequencies --    265.4223               268.4747               270.5810
 Red. masses --     36.0763                32.1682                38.0559
 Frc consts  --      1.4974                 1.3661                 1.6416
 IR Inten    --      8.6464                 0.3168                 3.5863

                     49                     50                     51
                      A                      A                      A
 Frequencies --    281.8864               288.3011               291.6709
 Red. masses --     35.5120                40.2513                37.7770
 Frc consts  --      1.6625                 1.9712                 1.8935
 IR Inten    --      0.9587                 1.8374                 4.0884

                     52                     53                     54
                      A                      A                      A
 Frequencies --    293.5426               296.7786               305.5146
 Red. masses --     35.1671                35.0284                35.2063
 Frc consts  --      1.7854                 1.8178                 1.9361
 IR Inten    --      5.0015                 2.2816                 2.3112

                     55                     56                     57
                      A                      A                      A
 Frequencies --    311.6537               314.7625               327.5314
 Red. masses --     36.1973                36.6382                39.4306
 Frc consts  --      2.0714                 2.1387                 2.4922
 IR Inten    --      0.9645                 4.2594                 3.4334

                     58                     59                     60
                      A                      A                      A
 Frequencies --    345.6584               358.1039               364.2797
 Red. masses --     35.4179                30.5613                36.9459
 Frc consts  --      2.4933                 2.3091                 2.8886
 IR Inten    --      0.0670                 0.7178                 1.3668

                     61                     62                     63
                      A                      A                      A
 Frequencies --    372.6236               378.6444               410.0026
 Red. masses --     38.2551                14.1102                33.8928
 Frc consts  --      3.1295                 1.1919                 3.3568
 IR Inten    --      1.2633                 0.3063                 1.6810

                     64                     65                     66
                      A                      A                      A
 Frequencies --    412.2896               420.3269               426.4617
 Red. masses --     33.0443                36.6467                35.9462
 Frc consts  --      3.3094                 3.8147                 3.8518
 IR Inten    --      1.2430                 2.4763                 0.7049

                     67                     68                     69
                      A                      A                      A
 Frequencies --    428.6050               433.6581               435.9081
 Red. masses --     34.2656                35.1197                37.7052
 Frc consts  --      3.7087                 3.8913                 4.2212
 IR Inten    --      8.7874                 0.7324                 3.4770

                     70                     71                     72
                      A                      A                      A
 Frequencies --    448.9751               452.2778               456.8311
 Red. masses --      8.6126                10.7879                 9.4636
 Frc consts  --      1.0229                 1.3002                 1.1636
 IR Inten    --      0.2371                 1.9910                 1.2694

                     73                     74                     75
                      A                      A                      A
 Frequencies --    459.5476               472.5877               478.9427
 Red. masses --      2.5156                36.5015                37.6695
 Frc consts  --      0.3130                 4.8031                 5.0910
 IR Inten    --      6.3183                11.0426                22.0837

                     76                     77                     78
                      A                      A                      A
 Frequencies --    482.9961               487.0089               554.6079
 Red. masses --     12.6890                 5.0588                33.7695
 Frc consts  --      1.7441                 0.7069                 6.1199
 IR Inten    --     33.1244                25.0057               135.8860

                     79                     80                     81
                      A                      A                      A
 Frequencies --    559.2114               561.2743               572.5804
 Red. masses --     40.0063                36.6565                 1.0832
 Frc consts  --      7.3711                 6.8038                 0.2092
 IR Inten    --    279.7648                86.1002                19.2948

                     82                     83                     84
                      A                      A                      A
 Frequencies --   1233.1551              2600.3416              2656.6227
 Red. masses --      1.0391                 1.0377                 1.0372
 Frc consts  --      0.9310                 4.1340                 4.3131
 IR Inten    --    119.0693                65.3962                 6.2554

 - Thermochemistry -
 -------------------
 Temperature   298.150 Kelvin.  Pressure   1.00000 Atm.
 Atom     1 has atomic number 42 and mass  97.90550

 Molecular mass:  1490.63451 amu.
 Principal axes and moments of inertia in atomic units:
                           1         2         3
     Eigenvalues --  ******************************
           X            0.88638  -0.46250   0.02051
           Y           -0.25759  -0.45590   0.85194
           Z            0.38468   0.76042   0.52324
 This molecule is an asymmetric top.
 Rotational symmetry number  1.
 Warning -- assumption of classical behavior for rotation
           may cause significant error
 Rotational temperatures (Kelvin)      0.00262     0.00162     0.00110
 Rotational constants (GHZ):           0.05449     0.03384     0.02295
 Zero-point vibrational energy     161135.0 (Joules/Mol)
                                   38.51219 (Kcal/Mol)
 Warning -- explicit consideration of  81 degrees of freedom as
           vibrations may cause significant error
 Vibrational temperatures:     32.55    43.58    51.80    64.66    73.13
          (Kelvin)             83.38    88.22   103.34   109.47   112.75
                              119.24   120.81   133.52   135.06   145.00
                              151.84   154.20   167.57   175.78   181.91
                              187.85   193.83   199.39   204.49   208.09
                              211.69   218.60   222.25   225.68   237.77
                              240.83   247.57   258.80   260.97   270.79
                              278.80   285.33   291.70   300.94   316.13
                              326.77   334.95   351.71   361.35   378.79
                              381.88   386.28   389.31   405.57   414.80
                              419.65   422.34   427.00   439.57   448.40
                              452.87   471.24   497.33   515.23   524.12
                              536.12   544.78   589.90   593.19   604.76
                              613.58   616.67   623.94   627.17   645.98
                              650.73   657.28   661.19   679.95   689.09
                              694.92   700.70   797.96   804.58   807.55
                              823.82  1774.24  3741.31  3822.29

 Zero-point correction=                           0.061373 (Hartree/Particle)
 Thermal correction to Energy=                    0.106142
 Thermal correction to Enthalpy=                  0.107086
 Thermal correction to Gibbs Free Energy=        -0.019361
 Sum of electronic and zero-point Energies=          -8175.643833
 Sum of electronic and thermal Energies=             -8175.599064
 Sum of electronic and thermal Enthalpies=           -8175.598120
 Sum of electronic and thermal Free Energies=        -8175.724568

                     E (Thermal)             CV                S
                      KCal/Mol        Cal/Mol-Kelvin    Cal/Mol-Kelvin
 Total                   66.605            144.720            266.131
 Electronic               0.000              0.000              0.000
 Translational            0.889              2.981             47.772
 Rotational               0.889              2.981             40.159
 Vibrational             64.828            138.758            178.201
 Vibration     1          0.593              1.985              6.389
 Vibration     2          0.594              1.984              5.810
 Vibration     3          0.594              1.982              5.468
 Vibration     4          0.595              1.979              5.028
 Vibration     5          0.595              1.977              4.785
 Vibration     6          0.596              1.974              4.526
 Vibration     7          0.597              1.973              4.414
 Vibration     8          0.598              1.967              4.103
 Vibration     9          0.599              1.965              3.989
 Vibration    10          0.600              1.964              3.931
 Vibration    11          0.600              1.961              3.822
 Vibration    12          0.601              1.960              3.796
 Vibration    13          0.602              1.954              3.600
 Vibration    14          0.603              1.954              3.578
 Vibration    15          0.604              1.948              3.439
 Vibration    16          0.605              1.945              3.349
 Vibration    17          0.606              1.943              3.319
 Vibration    18          0.608              1.936              3.158
 Vibration    19          0.610              1.931              3.066
 Vibration    20          0.611              1.927              3.000
 Vibration    21          0.612              1.923              2.938
 Vibration    22          0.613              1.919              2.878
 Vibration    23          0.614              1.915              2.823
 Vibration    24          0.616              1.911              2.775
 Vibration    25          0.616              1.908              2.742
 Vibration    26          0.617              1.906              2.709
 Vibration    27          0.619              1.901              2.648
 Vibration    28          0.620              1.898              2.616
 Vibration    29          0.621              1.895              2.587
 Vibration    30          0.624              1.885              2.489
 Vibration    31          0.624              1.883              2.465
 Vibration    32          0.626              1.877              2.413
 Vibration    33          0.629              1.867              2.330
 Vibration    34          0.630              1.865              2.314
 Vibration    35          0.633              1.856              2.245
 Vibration    36          0.635              1.849              2.191
 Vibration    37          0.637              1.842              2.149
 Vibration    38          0.639              1.836              2.108
 Vibration    39          0.642              1.827              2.051
 Vibration    40          0.647              1.811              1.961
 Vibration    41          0.651              1.800              1.902
 Vibration    42          0.654              1.791              1.857
 Vibration    43          0.660              1.772              1.770
 Vibration    44          0.663              1.761              1.723
 Vibration    45          0.670              1.740              1.640
 Vibration    46          0.671              1.736              1.626
 Vibration    47          0.673              1.731              1.606
 Vibration    48          0.674              1.727              1.592
 Vibration    49          0.681              1.707              1.522
 Vibration    50          0.685              1.695              1.484
 Vibration    51          0.687              1.689              1.464
 Vibration    52          0.688              1.686              1.453
 Vibration    53          0.690              1.680              1.435
 Vibration    54          0.696              1.663              1.387
 Vibration    55          0.700              1.651              1.354
 Vibration    56          0.702              1.645              1.337
 Vibration    57          0.711              1.620              1.272
 Vibration    58          0.724              1.584              1.186
 Vibration    59          0.733              1.559              1.130
 Vibration    60          0.738              1.546              1.104
 Vibration    61          0.744              1.528              1.069
 Vibration    62          0.749              1.516              1.045
 Vibration    63          0.774              1.449              0.927
 Vibration    64          0.776              1.444              0.919
 Vibration    65          0.783              1.426              0.891
 Vibration    66          0.788              1.413              0.870
 Vibration    67          0.790              1.408              0.863
 Vibration    68          0.794              1.397              0.847
 Vibration    69          0.796              1.392              0.840
 Vibration    70          0.808              1.363              0.799
 Vibration    71          0.811              1.356              0.789
 Vibration    72          0.815              1.346              0.775
 Vibration    73          0.817              1.340              0.767
 Vibration    74          0.829              1.311              0.730
 Vibration    75          0.835              1.297              0.713
 Vibration    76          0.839              1.288              0.702
 Vibration    77          0.843              1.279              0.691
 Vibration    78          0.910              1.130              0.535
 Vibration    79          0.915              1.120              0.525
 Vibration    80          0.917              1.115              0.521
 Vibration    81          0.929              1.091              0.499

                           ! Non-Optimized Parameters !
 Normal termination of Gaussian 16 at Sat Dec 10 17:37:57 2022.
