 Gaussian 16, Revision C.01,
 Gaussian 16:  ES64L-G16RevC.01  3-Jul-2019

 ---------------------------------------
 # opt freq b3lyp/gen nosymm pseudo=read
 ---------------------------------------

 -------------------
 Title Card Required
 -------------------
 Symbolic Z-matrix:
 Charge =  0 Multiplicity = 1

 SCF Done:  E(RB3LYP) =  -8575.04470812     A.U. after   43 cycles
 SCF Done:  E(RB3LYP) =  -8575.06627734     A.U. after   30 cycles
 SCF Done:  E(RB3LYP) =  -8575.07976653     A.U. after   27 cycles
 SCF Done:  E(RB3LYP) =  -8575.08483239     A.U. after   27 cycles
 SCF Done:  E(RB3LYP) =  -8575.09017977     A.U. after   28 cycles
 SCF Done:  E(RB3LYP) =  -8575.09352462     A.U. after   27 cycles
 SCF Done:  E(RB3LYP) =  -8575.09664074     A.U. after   27 cycles
 SCF Done:  E(RB3LYP) =  -8575.09769438     A.U. after   27 cycles
 SCF Done:  E(RB3LYP) =  -8575.09852145     A.U. after   22 cycles
 SCF Done:  E(RB3LYP) =  -8575.09975934     A.U. after   25 cycles
 SCF Done:  E(RB3LYP) =  -8575.10317605     A.U. after   25 cycles
 SCF Done:  E(RB3LYP) =  -8575.10334498     A.U. after   26 cycles
 SCF Done:  E(RB3LYP) =  -8575.10335630     A.U. after   21 cycles
 SCF Done:  E(RB3LYP) =  -8575.10335812     A.U. after   18 cycles
 SCF Done:  E(RB3LYP) =  -8575.10335680     A.U. after   20 cycles
 SCF Done:  E(RB3LYP) =  -8575.10335914     A.U. after   20 cycles
 SCF Done:  E(RB3LYP) =  -8575.10335955     A.U. after   15 cycles
 SCF Done:  E(RB3LYP) =  -8575.10335966     A.U. after   15 cycles
 SCF Done:  E(RB3LYP) =  -8575.10335982     A.U. after   15 cycles
 Optimization completed.
    -- Stationary point found.
 Normal termination of Gaussian 16 at Sat Dec 10 16:01:56 2022.

 ------------------------------------------------------------------
 #N Geom=AllCheck Guess=TCheck SCRF=Check GenChk RB3LYP/ChkBas Freq
 ------------------------------------------------------------------

 Structure from the checkpoint file:  "/home/chesagar/scratch/Gau-171821.chk"
 -------------------
 Title Card Required
 -------------------
 Charge =  0 Multiplicity = 1

                          Input orientation:
 ---------------------------------------------------------------------
 Center     Atomic      Atomic             Coordinates (Angstroms)
 Number     Number       Type             X           Y           Z
 ---------------------------------------------------------------------
      1         42           0        0.322064    1.851288   12.157885
      2         16           0        1.291990    3.981884   12.030763
      3         16           0       -1.715678    2.229879   13.193249
      4         16           0       -0.451723    1.130063   10.030984
      5         16           0        2.192655    0.266948   11.618950
      6         42           0       -2.207876    2.519746   10.849999
      7         16           0       -3.099327    1.864493    8.602821
      8         16           0       -1.485121    4.692150   10.687397
      9         42           0        0.554138    3.378300    9.763133
     10         16           0       -0.420097    3.260475    7.377279
     11         16           0        2.379758    1.997602    8.902782
     12         42           0        2.971345    2.629982   11.154310
     13         42           0       -2.341346    4.217149    8.596635
     14         16           0        4.356670    2.642432   13.232108
     15         16           0        4.521416    4.410053   10.545474
     16         16           0       -4.500576    5.197587    8.786920
     17         16           0       -1.687397    6.561862    7.901613
     18         42           0       -4.838556    3.049239    9.503256
     19         16           0       -6.688752    2.283196    8.790694
     20         16           0       -4.520651    2.907407   11.725288
     21         42           0        2.944741    0.958857   13.687557
     22         16           0        3.921536   -0.591547   14.758697
     23         16           0        1.103395    1.676173   14.671678
     24         42           0        0.210676    5.507971    7.383348
     25         16           0        1.194660    6.378628    5.688422
     26         16           0        1.432794    5.758202    9.343312
     27         42           0        3.118329    4.242844    8.771674
     28         16           0        3.221639    3.481574    6.235949
     29          1           0        3.692863    4.493731    5.477849
     30          1           0        4.391052    2.797860    6.220437
     31         16           0        4.431222    6.434167    7.968140
     32          1           0        3.686411    6.784245    6.890915
     33          1           0        5.473746    5.993781    7.232252
 ---------------------------------------------------------------------

 SCF Done:  E(RB3LYP) =  -8575.10335982     A.U. after    3 cycles

 Alpha  occ. eigenvalues --  -88.96455 -88.95947 -88.93289 -88.92392 -88.91624
 Alpha  occ. eigenvalues --  -88.91163 -88.91066 -88.91030 -88.90890 -88.90411
 Alpha  occ. eigenvalues --  -88.88950 -88.88869 -88.88665 -88.88528 -88.88054
 Alpha  occ. eigenvalues --  -88.87965 -88.87804 -88.87771 -88.86969 -88.86865
 Alpha  occ. eigenvalues --   -8.03898  -8.03533  -8.00724  -7.99788  -7.98936
 Alpha  occ. eigenvalues --   -7.98589  -7.98583  -7.98462  -7.98351  -7.97932
 Alpha  occ. eigenvalues --   -7.96576  -7.96575  -7.96352  -7.96241  -7.95928
 Alpha  occ. eigenvalues --   -7.95557  -7.95506  -7.95499  -7.94838  -7.94766
 Alpha  occ. eigenvalues --   -6.00225  -5.99955  -5.99847  -5.99566  -5.99431
 Alpha  occ. eigenvalues --   -5.99070  -5.96779  -5.96673  -5.96622  -5.95876
 Alpha  occ. eigenvalues --   -5.95773  -5.95638  -5.94972  -5.94919  -5.94851
 Alpha  occ. eigenvalues --   -5.94654  -5.94608  -5.94574  -5.94573  -5.94514
 Alpha  occ. eigenvalues --   -5.94466  -5.94459  -5.94458  -5.94373  -5.94357
 Alpha  occ. eigenvalues --   -5.94314  -5.94236  -5.93959  -5.93916  -5.93814
 Alpha  occ. eigenvalues --   -5.92654  -5.92640  -5.92528  -5.92514  -5.92438
 Alpha  occ. eigenvalues --   -5.92423  -5.92418  -5.92317  -5.92274  -5.92204
 Alpha  occ. eigenvalues --   -5.92199  -5.92055  -5.91913  -5.91869  -5.91829
 Alpha  occ. eigenvalues --   -5.91677  -5.91650  -5.91613  -5.91509  -5.91445
 Alpha  occ. eigenvalues --   -5.91430  -5.91329  -5.91327  -5.91287  -5.90859
 Alpha  occ. eigenvalues --   -5.90773  -5.90759  -5.90708  -5.90700  -5.90642
 Alpha  occ. eigenvalues --   -2.56108  -2.56006  -2.55991  -2.55149  -2.54703
 Alpha  occ. eigenvalues --   -2.54357  -2.53885  -2.53449  -2.53340  -1.59369
 Alpha  occ. eigenvalues --   -1.58939  -1.58738  -1.58638  -1.58472  -1.58392
 Alpha  occ. eigenvalues --   -1.58298  -1.57944  -1.57929  -1.57608  -1.57595
 Alpha  occ. eigenvalues --   -1.57468  -1.57284  -1.57203  -1.56992  -1.56851
 Alpha  occ. eigenvalues --   -1.56659  -1.56592  -1.56039  -1.55893  -1.55750
 Alpha  occ. eigenvalues --   -1.55500  -1.55430  -1.55241  -1.55161  -1.55005
 Alpha  occ. eigenvalues --   -1.54864  -0.83459  -0.82614  -0.77132  -0.75186
 Alpha  occ. eigenvalues --   -0.74829  -0.74496  -0.73694  -0.73609  -0.72839
 Alpha  occ. eigenvalues --   -0.72828  -0.71586  -0.71224  -0.71022  -0.70644
 Alpha  occ. eigenvalues --   -0.70452  -0.69877  -0.69613  -0.69176  -0.68224
 Alpha  occ. eigenvalues --   -0.68109  -0.53006  -0.52430  -0.47133  -0.46179
 Alpha  occ. eigenvalues --   -0.44335  -0.43880  -0.43278  -0.43004  -0.41715
 Alpha  occ. eigenvalues --   -0.41549  -0.41128  -0.40780  -0.40537  -0.40301
 Alpha  occ. eigenvalues --   -0.40232  -0.39709  -0.39286  -0.38939  -0.38440
 Alpha  occ. eigenvalues --   -0.38332  -0.38226  -0.38037  -0.37740  -0.37428
 Alpha  occ. eigenvalues --   -0.37188  -0.37072  -0.36782  -0.36563  -0.36494
 Alpha  occ. eigenvalues --   -0.35966  -0.35732  -0.35661  -0.35348  -0.35111
 Alpha  occ. eigenvalues --   -0.34927  -0.34839  -0.34628  -0.34363  -0.34312
 Alpha  occ. eigenvalues --   -0.33939  -0.33882  -0.33816  -0.33427  -0.32856
 Alpha  occ. eigenvalues --   -0.32532  -0.32348  -0.32160  -0.31744  -0.31613
 Alpha  occ. eigenvalues --   -0.31277  -0.30764  -0.30536  -0.30172  -0.29981
 Alpha  occ. eigenvalues --   -0.29522  -0.28900  -0.28653  -0.28397  -0.27990
 Alpha  occ. eigenvalues --   -0.27792  -0.26958  -0.26634  -0.25546  -0.25321
 Alpha  occ. eigenvalues --   -0.24762  -0.24085  -0.23895  -0.22564  -0.21128
 Alpha virt. eigenvalues --   -0.16481  -0.16113  -0.15025  -0.14617  -0.14370
 Alpha virt. eigenvalues --   -0.13838  -0.13530  -0.13391  -0.13043  -0.12773
 Alpha virt. eigenvalues --   -0.12449  -0.11926  -0.11653  -0.11293  -0.11166

 Mulliken charges:
               1
     1  Mo  -0.167889
     2  S    0.351859
     3  S    0.038657
     4  S    0.180116
     5  S    0.063397
     6  Mo  -0.255282
     7  S    0.130335
     8  S    0.305242
     9  Mo  -0.814398
    10  S    0.062767
    11  S    0.147169
    12  Mo  -0.211685
    13  Mo  -0.264496
    14  S   -0.034514
    15  S   -0.009609
    16  S    0.012996
    17  S   -0.002973
    18  Mo   0.266968
    19  S   -0.228506
    20  S   -0.014493
    21  Mo   0.293464
    22  S   -0.214227
    23  S   -0.045935
    24  Mo   0.203498
    25  S   -0.310446
    26  S    0.132972
    27  Mo  -0.252121
    28  S    0.078577
    29  H    0.114285
    30  H    0.121881
    31  S    0.080406
    32  H    0.123336
    33  H    0.118648
 Sum of Mulliken charges =  -0.00000

 Dipole moment (field-independent basis, Debye):
    X=              8.0969    Y=              2.2217    Z=             -8.4228  Tot=             11.8928
 Quadrupole moment (field-independent basis, Debye-Ang):
   XX=           -460.4687   YY=           -461.1001   ZZ=           -640.2353
   XY=             42.5524   XZ=             36.8021   YZ=             -2.5547

  Exact polarizability:    1108.204     -11.278     632.742      97.118    -250.165     811.419
 Approx polarizability:    3536.797      36.128    2071.844      92.771    -759.475    2604.312

                      1                      2                      3
                      A                      A                      A
 Frequencies --     32.0657                42.4671                46.9149
 Red. masses --     19.0678                26.8395                22.1679
 Frc consts  --      0.0116                 0.0285                 0.0287
 IR Inten    --      0.6685                 0.6090                 1.2500

                      4                      5                      6
                      A                      A                      A
 Frequencies --     51.1130                60.7885                65.2525
 Red. masses --     20.7833                32.5064                13.4200
 Frc consts  --      0.0320                 0.0708                 0.0337
 IR Inten    --      0.5110                 0.0382                 4.0968

                      7                      8                      9
                      A                      A                      A
 Frequencies --     70.2355                73.8854                77.9052
 Red. masses --     13.3767                28.0909                33.9305
 Frc consts  --      0.0389                 0.0904                 0.1213
 IR Inten    --      1.8865                 0.4049                 2.6846

                     10                     11                     12
                      A                      A                      A
 Frequencies --     78.0743                83.9491                87.4257
 Red. masses --     26.4463                13.8478                31.5980
 Frc consts  --      0.0950                 0.0575                 0.1423
 IR Inten    --      0.2038                 1.9488                 3.4901

                     13                     14                     15
                      A                      A                      A
 Frequencies --     92.6048                94.1252               101.2130
 Red. masses --     26.2965                16.3351                15.2633
 Frc consts  --      0.1329                 0.0853                 0.0921
 IR Inten    --      2.7584                 1.0313                 6.3049

                     16                     17                     18
                      A                      A                      A
 Frequencies --    104.4447               107.5776               114.0352
 Red. masses --     28.2844                17.2950                13.2553
 Frc consts  --      0.1818                 0.1179                 0.1016
 IR Inten    --      1.2083                 3.6653                 1.7334

                     19                     20                     21
                      A                      A                      A
 Frequencies --    116.8819               120.0871               126.3507
 Red. masses --     14.4101                20.6263                22.5768
 Frc consts  --      0.1160                 0.1753                 0.2124
 IR Inten    --      2.3648                 0.1570                 2.0644

                     22                     23                     24
                      A                      A                      A
 Frequencies --    129.8685               132.0120               133.6087
 Red. masses --     34.2325                43.9392                26.8636
 Frc consts  --      0.3402                 0.4512                 0.2825
 IR Inten    --      0.4908                 1.3836                 0.5188

                     25                     26                     27
                      A                      A                      A
 Frequencies --    137.4970               141.3536               144.9256
 Red. masses --     17.1153                36.9273                21.4350
 Frc consts  --      0.1906                 0.4347                 0.2653
 IR Inten    --      2.2386                 0.1678                 0.3670

                     28                     29                     30
                      A                      A                      A
 Frequencies --    149.5723               154.0722               154.3616
 Red. masses --     14.6605                17.5193                 6.8748
 Frc consts  --      0.1932                 0.2450                 0.0965
 IR Inten    --      0.8115                 0.8977                 1.2397

                     31                     32                     33
                      A                      A                      A
 Frequencies --    158.0508               164.2556               170.1391
 Red. masses --     21.2059                24.1937                28.9455
 Frc consts  --      0.3121                 0.3846                 0.4937
 IR Inten    --      2.9335                 0.6266                 2.6159

                     34                     35                     36
                      A                      A                      A
 Frequencies --    171.0877               177.3089               178.6627
 Red. masses --      8.1081                 4.9724                35.1948
 Frc consts  --      0.1398                 0.0921                 0.6619
 IR Inten    --      1.3317                 8.5904                 1.9768

                     37                     38                     39
                      A                      A                      A
 Frequencies --    182.9364               186.9890               191.2324
 Red. masses --     29.4736                 4.5463                16.3784
 Frc consts  --      0.5811                 0.0937                 0.3529
 IR Inten    --      1.2967                 2.8187                 3.2117

                     40                     41                     42
                      A                      A                      A
 Frequencies --    197.0795               199.5139               203.8244
 Red. masses --      1.3032                17.4668                22.2240
 Frc consts  --      0.0298                 0.4096                 0.5440
 IR Inten    --      8.6315                 0.1274                 0.7935

                     43                     44                     45
                      A                      A                      A
 Frequencies --    220.3949               225.5742               232.6552
 Red. masses --     23.5405                22.3003                34.1306
 Frc consts  --      0.6737                 0.6686                 1.0885
 IR Inten    --      0.0749                 2.1950                 2.5500

                     46                     47                     48
                      A                      A                      A
 Frequencies --    241.0781               243.7190               250.5455
 Red. masses --     33.3720                37.4807                36.6921
 Frc consts  --      1.1427                 1.3117                 1.3571
 IR Inten    --      2.7179                 4.3517                 1.1567

                     49                     50                     51
                      A                      A                      A
 Frequencies --    251.0173               261.7623               262.8611
 Red. masses --     33.2284                36.2413                36.8992
 Frc consts  --      1.2336                 1.4631                 1.5022
 IR Inten    --      0.7375                 0.9226                 2.0709

                     52                     53                     54
                      A                      A                      A
 Frequencies --    275.3844               283.2759               291.8071
 Red. masses --     36.6508                33.8591                35.9152
 Frc consts  --      1.6376                 1.6008                 1.8019
 IR Inten    --      2.2731                 6.2877                 1.5779

                     55                     56                     57
                      A                      A                      A
 Frequencies --    294.9542               300.9545               302.1636
 Red. masses --     39.8871                33.9997                35.7126
 Frc consts  --      2.0445                 1.8144                 1.9211
 IR Inten    --      0.4988                 3.2029                 5.2628

                     58                     59                     60
                      A                      A                      A
 Frequencies --    311.0304               311.8908               326.4523
 Red. masses --     35.4401                35.0797                35.2895
 Frc consts  --      2.0200                 2.0105                 2.2158
 IR Inten    --      0.3322                 2.4034                 2.8987

                     61                     62                     63
                      A                      A                      A
 Frequencies --    335.6161               350.2636               366.8295
 Red. masses --     37.9387                34.4937                35.1659
 Frc consts  --      2.5178                 2.4933                 2.7880
 IR Inten    --      3.7173                 1.4723                 0.3784

                     64                     65                     66
                      A                      A                      A
 Frequencies --    372.5776               374.7117               393.8327
 Red. masses --     31.5665                38.0770                32.4302
 Frc consts  --      2.5817                 3.1500                 2.9636
 IR Inten    --      3.6958                 0.7648                 1.4195

                     67                     68                     69
                      A                      A                      A
 Frequencies --    407.7382               411.1135               413.6378
 Red. masses --     33.8602                33.3291                36.2982
 Frc consts  --      3.3167                 3.3189                 3.6591
 IR Inten    --      1.8607                 2.2860                 0.5609

                     70                     71                     72
                      A                      A                      A
 Frequencies --    421.3705               427.2535               428.3135
 Red. masses --     26.2682                28.7414                22.4166
 Frc consts  --      2.7480                 3.0912                 2.4229
 IR Inten    --      4.4951                 8.6554                 2.8602

                     73                     74                     75
                      A                      A                      A
 Frequencies --    430.9746               438.3185               439.7998
 Red. masses --     32.1767                29.5176                36.6005
 Frc consts  --      3.5212                 3.3413                 4.1711
 IR Inten    --      1.9097                 7.6733                13.0153

                     76                     77                     78
                      A                      A                      A
 Frequencies --    454.9866               459.6156               462.1952
 Red. masses --     37.7911                36.4841                12.5660
 Frc consts  --      4.6093                 4.5409                 1.5816
 IR Inten    --     28.5707                 1.5688                 6.5354

                     79                     80                     81
                      A                      A                      A
 Frequencies --    470.3147               476.8966               480.3026
 Red. masses --     36.8393                36.5315                 1.2212
 Frc consts  --      4.8011                 4.8952                 0.1660
 IR Inten    --      6.5555                14.3388                21.2869

                     82                     83                     84
                      A                      A                      A
 Frequencies --    522.5336               536.4575               558.2655
 Red. masses --      4.5608                 1.3180                39.8118
 Frc consts  --      0.7337                 0.2235                 7.3104
 IR Inten    --    141.2597                23.5347               272.1028

                     85                     86                     87
                      A                      A                      A
 Frequencies --    560.4675               578.3353               609.9624
 Red. masses --     39.7930                 1.0920                 1.0516
 Frc consts  --      7.3648                 0.2152                 0.2305
 IR Inten    --    115.9477                 0.1432                10.1062

                     88                     89                     90
                      A                      A                      A
 Frequencies --   1204.2134              1215.3474              2604.2738
 Red. masses --      1.0395                 1.0373                 1.0376
 Frc consts  --      0.8881                 0.9027                 4.1460
 IR Inten    --      7.2694                 4.0382                56.6980

                     91                     92                     93
                      A                      A                      A
 Frequencies --   2623.8167              2675.5593              2680.3451
 Red. masses --      1.0366                 1.0385                 1.0385
 Frc consts  --      4.2046                 4.3800                 4.3957
 IR Inten    --     13.8215                 4.5248                 0.1135

 - Thermochemistry -
 -------------------
 Temperature   298.150 Kelvin.  Pressure   1.00000 Atm.
 Atom     1 has atomic number 42 and mass  97.90550

 Molecular mass:  1524.62224 amu.
 Principal axes and moments of inertia in atomic units:
                           1         2         3
     Eigenvalues --  ******************************
           X            0.87912  -0.47155  -0.06917
           Y           -0.22436  -0.53752   0.81285
           Z            0.42048   0.69908   0.57835
 This molecule is an asymmetric top.
 Rotational symmetry number  1.
 Warning -- assumption of classical behavior for rotation
           may cause significant error
 Rotational temperatures (Kelvin)      0.00238     0.00161     0.00107
 Rotational constants (GHZ):           0.04958     0.03362     0.02232
 Zero-point vibrational energy     211018.3 (Joules/Mol)
                                   50.43459 (Kcal/Mol)
 Warning -- explicit consideration of  87 degrees of freedom as
           vibrations may cause significant error
 Vibrational temperatures:     46.14    61.10    67.50    73.54    87.46
          (Kelvin)             93.88   101.05   106.30   112.09   112.33
                              120.78   125.79   133.24   135.43   145.62
                              150.27   154.78   164.07   168.17   172.78
                              181.79   186.85   189.94   192.23   197.83
                              203.38   208.52   215.20   221.68   222.09
                              227.40   236.33   244.79   246.16   255.11
                              257.06   263.20   269.04   275.14   283.55
                              287.06   293.26   317.10   324.55   334.74
                              346.86   350.66   360.48   361.16   376.62
                              378.20   396.22   407.57   419.85   424.37
                              433.01   434.75   447.50   448.74   469.69
                              482.88   503.95   527.79   536.06   539.13
                              566.64   586.64   591.50   595.13   606.26
                              614.72   616.25   620.08   630.64   632.77
                              654.62   661.28   665.00   676.68   686.15
                              691.05   751.81   771.84   803.22   806.39
                              832.10   877.60  1732.59  1748.61  3746.97
                             3775.09  3849.53  3856.42

 Zero-point correction=                           0.080373 (Hartree/Particle)
 Thermal correction to Energy=                    0.127877
 Thermal correction to Enthalpy=                  0.128821
 Thermal correction to Gibbs Free Energy=        -0.001653
 Sum of electronic and zero-point Energies=          -8575.022987
 Sum of electronic and thermal Energies=             -8574.975483
 Sum of electronic and thermal Enthalpies=           -8574.974538
 Sum of electronic and thermal Free Energies=        -8575.105013

                     E (Thermal)             CV                S
                      KCal/Mol        Cal/Mol-Kelvin    Cal/Mol-Kelvin
 Total                   80.244            154.718            274.607
 Electronic               0.000              0.000              0.000
 Translational            0.889              2.981             47.839
 Rotational               0.889              2.981             40.287
 Vibrational             78.467            148.756            186.481
 Vibration     1          0.594              1.983              5.697
 Vibration     2          0.595              1.980              5.141
 Vibration     3          0.595              1.979              4.943
 Vibration     4          0.595              1.977              4.774
 Vibration     5          0.597              1.973              4.431
 Vibration     6          0.597              1.971              4.292
 Vibration     7          0.598              1.968              4.147
 Vibration     8          0.599              1.966              4.047
 Vibration     9          0.599              1.964              3.943
 Vibration    10          0.599              1.964              3.939
 Vibration    11          0.601              1.960              3.796
 Vibration    12          0.601              1.958              3.717
 Vibration    13          0.602              1.954              3.604
 Vibration    14          0.603              1.953              3.572
 Vibration    15          0.604              1.948              3.431
 Vibration    16          0.605              1.946              3.370
 Vibration    17          0.606              1.943              3.312
 Vibration    18          0.607              1.938              3.199
 Vibration    19          0.608              1.935              3.151
 Vibration    20          0.609              1.933              3.099
 Vibration    21          0.611              1.927              3.001
 Vibration    22          0.612              1.923              2.948
 Vibration    23          0.612              1.921              2.917
 Vibration    24          0.613              1.920              2.893
 Vibration    25          0.614              1.916              2.838
 Vibration    26          0.615              1.912              2.785
 Vibration    27          0.616              1.908              2.738
 Vibration    28          0.618              1.903              2.678
 Vibration    29          0.620              1.898              2.621
 Vibration    30          0.620              1.898              2.618
 Vibration    31          0.621              1.894              2.573
 Vibration    32          0.623              1.886              2.500
 Vibration    33          0.625              1.879              2.434
 Vibration    34          0.626              1.878              2.424
 Vibration    35          0.628              1.870              2.357
 Vibration    36          0.629              1.869              2.342
 Vibration    37          0.630              1.863              2.298
 Vibration    38          0.632              1.858              2.257
 Vibration    39          0.634              1.852              2.216
 Vibration    40          0.636              1.844              2.160
 Vibration    41          0.638              1.841              2.138
 Vibration    42          0.639              1.834              2.098
 Vibration    43          0.647              1.810              1.956
 Vibration    44          0.650              1.802              1.914
 Vibration    45          0.653              1.791              1.858
 Vibration    46          0.658              1.777              1.795
 Vibration    47          0.659              1.773              1.776
 Vibration    48          0.663              1.762              1.727
 Vibration    49          0.663              1.761              1.723
 Vibration    50          0.669              1.743              1.650
 Vibration    51          0.670              1.741              1.643
 Vibration    52          0.677              1.719              1.562
 Vibration    53          0.682              1.705              1.514
 Vibration    54          0.687              1.689              1.463
 Vibration    55          0.689              1.683              1.445
 Vibration    56          0.693              1.672              1.412
 Vibration    57          0.694              1.670              1.405
 Vibration    58          0.700              1.653              1.357
 Vibration    59          0.700              1.651              1.352
 Vibration    60          0.710              1.623              1.278
 Vibration    61          0.717              1.604              1.233
 Vibration    62          0.727              1.575              1.165
 Vibration    63          0.740              1.540              1.093
 Vibration    64          0.744              1.528              1.069
 Vibration    65          0.746              1.524              1.060
 Vibration    66          0.761              1.483              0.986
 Vibration    67          0.772              1.453              0.935
 Vibration    68          0.775              1.446              0.923
 Vibration    69          0.777              1.441              0.914
 Vibration    70          0.784              1.424              0.887
 Vibration    71          0.789              1.411              0.868
 Vibration    72          0.790              1.409              0.864
 Vibration    73          0.792              1.403              0.855
 Vibration    74          0.798              1.387              0.832
 Vibration    75          0.800              1.383              0.827
 Vibration    76          0.813              1.350              0.781
 Vibration    77          0.818              1.340              0.767
 Vibration    78          0.820              1.334              0.760
 Vibration    79          0.827              1.316              0.737
 Vibration    80          0.833              1.301              0.718
 Vibration    81          0.837              1.294              0.709
 Vibration    82          0.877              1.200              0.604
 Vibration    83          0.891              1.169              0.573
 Vibration    84          0.914              1.122              0.527
 Vibration    85          0.916              1.117              0.523
 Vibration    86          0.935              1.078              0.488
 Vibration    87          0.969              1.011              0.433

                           ! Non-Optimized Parameters !
 Normal termination of Gaussian 16 at Sat Dec 10 16:15:20 2022.
