 Gaussian 16, Revision C.01,
 Gaussian 16:  ES64L-G16RevC.01  3-Jul-2019

 ---------------------------------------
 # opt freq b3lyp/gen nosymm pseudo=read
 ---------------------------------------

 -------------------
 Title Card Required
 -------------------
 Symbolic Z-matrix:
 Charge =  0 Multiplicity = 1

 SCF Done:  E(RB3LYP) =  -8573.91873615     A.U. after   40 cycles
 SCF Done:  E(RB3LYP) =  -8573.92643983     A.U. after   21 cycles
 SCF Done:  E(RB3LYP) =  -8573.93031287     A.U. after   21 cycles
 SCF Done:  E(RB3LYP) =  -8573.93091376     A.U. after   19 cycles
 SCF Done:  E(RB3LYP) =  -8573.93114151     A.U. after   18 cycles
 SCF Done:  E(RB3LYP) =  -8573.93157750     A.U. after   20 cycles
 SCF Done:  E(RB3LYP) =  -8573.93199665     A.U. after   20 cycles
 SCF Done:  E(RB3LYP) =  -8573.93197727     A.U. after   20 cycles
 SCF Done:  E(RB3LYP) =  -8573.93293281     A.U. after   19 cycles
 SCF Done:  E(RB3LYP) =  -8573.93486602     A.U. after   22 cycles
 SCF Done:  E(RB3LYP) =  -8573.93624468     A.U. after   19 cycles
 SCF Done:  E(RB3LYP) =  -8573.93638352     A.U. after   19 cycles
 SCF Done:  E(RB3LYP) =  -8573.93640886     A.U. after   18 cycles
 SCF Done:  E(RB3LYP) =  -8573.93641742     A.U. after   16 cycles
 SCF Done:  E(RB3LYP) =  -8573.93640401     A.U. after   18 cycles
 SCF Done:  E(RB3LYP) =  -8573.93642667     A.U. after   18 cycles
 SCF Done:  E(RB3LYP) =  -8573.93642851     A.U. after   15 cycles
 SCF Done:  E(RB3LYP) =  -8573.93642958     A.U. after   15 cycles
 SCF Done:  E(RB3LYP) =  -8573.93642996     A.U. after   14 cycles
 Optimization completed.
    -- Stationary point found.
 Normal termination of Gaussian 16 at Sat Dec 10 17:48:01 2022.

 ------------------------------------------------------------------
 #N Geom=AllCheck Guess=TCheck SCRF=Check GenChk RB3LYP/ChkBas Freq
 ------------------------------------------------------------------

 Structure from the checkpoint file:  "/home/chesagar/scratch/Gau-204358.chk"
 -------------------
 Title Card Required
 -------------------
 Charge =  0 Multiplicity = 1

                          Input orientation:
 ---------------------------------------------------------------------
 Center     Atomic      Atomic             Coordinates (Angstroms)
 Number     Number       Type             X           Y           Z
 ---------------------------------------------------------------------
      1         42           0        0.416602    1.874663   12.054692
      2         16           0        1.240814    4.054544   11.882183
      3         16           0       -1.624176    2.273605   13.169290
      4         16           0       -0.413664    1.186522    9.923712
      5         16           0        2.283238    0.357405   11.253013
      6         42           0       -2.103765    2.560736   10.901290
      7         16           0       -3.285500    1.822583    8.827493
      8         16           0       -1.540230    4.807139   10.607129
      9         42           0        0.384373    3.483144    9.630352
     10         16           0       -0.724390    3.156791    7.331507
     11         16           0        2.364126    2.364277    8.648456
     12         42           0        2.922095    2.757371   10.925118
     13         42           0       -2.555272    4.191419    8.620555
     14         16           0        4.325080    2.609840   13.072305
     15         16           0        4.470078    4.556385   10.628446
     16         16           0       -4.697723    5.172797    8.944074
     17         16           0       -2.052034    6.481582    7.655506
     18         42           0       -4.966822    3.060966    9.789870
     19         16           0       -6.877219    2.279662    9.295369
     20         16           0       -4.459048    3.062114   11.938856
     21         42           0        2.988463    0.860058   13.380806
     22         16           0        3.970853   -0.750347   14.347902
     23         16           0        1.155505    1.520993   14.458575
     24         42           0       -0.190628    5.392244    7.217788
     25         16           0        0.557932    5.858929    5.297469
     26         16           0        1.292639    5.822413    8.993075
     27         42           0        3.309445    4.590023    8.701396
     28         16           0        4.328766    3.842002    6.679724
     29          1           0        3.736648    2.647620    6.443518
     30         16           0        4.662026    6.479428    8.018842
     31          1           0        5.305302    6.792924    9.162642
 ---------------------------------------------------------------------

 SCF Done:  E(RB3LYP) =  -8573.93642996     A.U. after    3 cycles

 Alpha  occ. eigenvalues --  -88.93840 -88.93385 -88.93077 -88.92854 -88.92154
 Alpha  occ. eigenvalues --  -88.92104 -88.91982 -88.91980 -88.91358 -88.90694
 Alpha  occ. eigenvalues --  -88.90334 -88.90040 -88.89729 -88.89587 -88.89555
 Alpha  occ. eigenvalues --  -88.89540 -88.89470 -88.88486 -88.88412 -88.88210
 Alpha  occ. eigenvalues --   -8.01201  -8.00714  -8.00523  -8.00520  -7.99678
 Alpha  occ. eigenvalues --   -7.99508  -7.99492  -7.99404  -7.99065  -7.98354
 Alpha  occ. eigenvalues --   -7.98182  -7.97756  -7.97467  -7.97277  -7.97203
 Alpha  occ. eigenvalues --   -7.97190  -7.97111  -7.96305  -7.96155  -7.96087
 Alpha  occ. eigenvalues --   -5.97239  -5.97169  -5.97116  -5.96743  -5.96692
 Alpha  occ. eigenvalues --   -5.96635  -5.96573  -5.96563  -5.96514  -5.96495
 Alpha  occ. eigenvalues --   -5.96388  -5.96373  -5.95704  -5.95666  -5.95554
 Alpha  occ. eigenvalues --   -5.95541  -5.95535  -5.95495  -5.95491  -5.95476
 Alpha  occ. eigenvalues --   -5.95396  -5.95388  -5.95361  -5.95255  -5.95118
 Alpha  occ. eigenvalues --   -5.95031  -5.94895  -5.94452  -5.94270  -5.94214
 Alpha  occ. eigenvalues --   -5.94199  -5.94095  -5.94054  -5.93824  -5.93685
 Alpha  occ. eigenvalues --   -5.93607  -5.93564  -5.93457  -5.93422  -5.93394
 Alpha  occ. eigenvalues --   -5.93312  -5.93259  -5.93246  -5.93221  -5.93155
 Alpha  occ. eigenvalues --   -5.93091  -5.93059  -5.93035  -5.92986  -5.92934
 Alpha  occ. eigenvalues --   -5.92889  -5.92413  -5.92287  -5.92238  -5.92199
 Alpha  occ. eigenvalues --   -5.92107  -5.92084  -5.92022  -5.91949  -5.91833
 Alpha  occ. eigenvalues --   -2.58754  -2.57643  -2.57626  -2.57262  -2.55957
 Alpha  occ. eigenvalues --   -2.55727  -2.55584  -2.55298  -2.54544  -1.61559
 Alpha  occ. eigenvalues --   -1.61080  -1.60696  -1.60608  -1.60360  -1.60135
 Alpha  occ. eigenvalues --   -1.60020  -1.59782  -1.59660  -1.59588  -1.59418
 Alpha  occ. eigenvalues --   -1.59183  -1.59147  -1.58985  -1.58668  -1.58243
 Alpha  occ. eigenvalues --   -1.58083  -1.57835  -1.57819  -1.57478  -1.57388
 Alpha  occ. eigenvalues --   -1.57168  -1.56817  -1.56711  -1.56614  -1.56565
 Alpha  occ. eigenvalues --   -1.56163  -0.78263  -0.76324  -0.76135  -0.75839
 Alpha  occ. eigenvalues --   -0.75446  -0.75251  -0.74698  -0.74193  -0.73605
 Alpha  occ. eigenvalues --   -0.73417  -0.73305  -0.72662  -0.72618  -0.72366
 Alpha  occ. eigenvalues --   -0.71894  -0.71406  -0.71304  -0.70702  -0.69610
 Alpha  occ. eigenvalues --   -0.69423  -0.47037  -0.45515  -0.45384  -0.44804
 Alpha  occ. eigenvalues --   -0.44191  -0.43166  -0.42823  -0.42609  -0.42467
 Alpha  occ. eigenvalues --   -0.42089  -0.41832  -0.41587  -0.41319  -0.41070
 Alpha  occ. eigenvalues --   -0.40515  -0.40356  -0.40095  -0.39798  -0.39699
 Alpha  occ. eigenvalues --   -0.39476  -0.39178  -0.38698  -0.38486  -0.38278
 Alpha  occ. eigenvalues --   -0.38258  -0.38074  -0.37697  -0.37400  -0.37283
 Alpha  occ. eigenvalues --   -0.36971  -0.36726  -0.36466  -0.36365  -0.36133
 Alpha  occ. eigenvalues --   -0.35874  -0.35787  -0.35602  -0.35224  -0.35143
 Alpha  occ. eigenvalues --   -0.34898  -0.34383  -0.34019  -0.33828  -0.33690
 Alpha  occ. eigenvalues --   -0.33389  -0.32922  -0.32526  -0.32088  -0.31916
 Alpha  occ. eigenvalues --   -0.31638  -0.31480  -0.30936  -0.30419  -0.30188
 Alpha  occ. eigenvalues --   -0.29930  -0.29762  -0.29443  -0.29241  -0.28914
 Alpha  occ. eigenvalues --   -0.28580  -0.27936  -0.26931  -0.26778  -0.26431
 Alpha  occ. eigenvalues --   -0.25881  -0.25247  -0.24893  -0.24142
 Alpha virt. eigenvalues --   -0.18175  -0.17482  -0.16969  -0.16515  -0.16010
 Alpha virt. eigenvalues --   -0.15530  -0.15086  -0.14968  -0.14571  -0.14313
 Alpha virt. eigenvalues --   -0.14077  -0.13588  -0.13284  -0.13098  -0.12921

 Mulliken charges:
               1
     1  Mo  -0.210739
     2  S    0.357232
     3  S    0.040726
     4  S    0.210429
     5  S    0.088091
     6  Mo  -0.185694
     7  S    0.109178
     8  S    0.330353
     9  Mo  -0.814622
    10  S    0.120168
    11  S    0.128020
    12  Mo  -0.242119
    13  Mo  -0.305079
    14  S   -0.028352
    15  S    0.032781
    16  S    0.010375
    17  S    0.031953
    18  Mo   0.294552
    19  S   -0.210172
    20  S   -0.033780
    21  Mo   0.319413
    22  S   -0.195097
    23  S   -0.015751
    24  Mo   0.325669
    25  S   -0.155338
    26  S   -0.012940
    27  Mo  -0.256507
    28  S    0.072896
    29  H    0.071806
    30  S    0.035246
    31  H    0.087299
 Sum of Mulliken charges =  -0.00000

 Dipole moment (field-independent basis, Debye):
    X=              0.4263    Y=              0.2808    Z=             -1.8941  Tot=              1.9617
 Quadrupole moment (field-independent basis, Debye-Ang):
   XX=           -488.6352   YY=           -467.1322   ZZ=           -516.8042
   XY=              1.4635   XZ=              7.1130   YZ=              4.6825

  Exact polarizability:    1149.439      10.975     646.038      53.001    -249.845     804.860
 Approx polarizability:    3422.002     150.135    2151.391     -48.703    -763.545    2698.530

                      1                      2                      3
                      A                      A                      A
 Frequencies --     23.8469                41.7086                43.9754
 Red. masses --     31.1037                25.5400                21.1543
 Frc consts  --      0.0104                 0.0262                 0.0241
 IR Inten    --      1.1244                 0.5309                 0.0910

                      4                      5                      6
                      A                      A                      A
 Frequencies --     48.9937                55.8093                58.0906
 Red. masses --     25.8311                28.3217                32.4252
 Frc consts  --      0.0365                 0.0520                 0.0645
 IR Inten    --      0.8468                 0.3178                 0.5821

                      7                      8                      9
                      A                      A                      A
 Frequencies --     65.7250                70.9587                73.4320
 Red. masses --     32.9484                28.2250                36.5989
 Frc consts  --      0.0839                 0.0837                 0.1163
 IR Inten    --      2.4238                 0.2693                 1.1193

                     10                     11                     12
                      A                      A                      A
 Frequencies --     81.7915                83.7261                86.5991
 Red. masses --     36.8726                27.8185                37.9334
 Frc consts  --      0.1453                 0.1149                 0.1676
 IR Inten    --      1.3056                 0.0067                 2.9386

                     13                     14                     15
                      A                      A                      A
 Frequencies --     89.0828                94.2840               102.4318
 Red. masses --     34.7441                29.3426                42.6690
 Frc consts  --      0.1624                 0.1537                 0.2638
 IR Inten    --      2.4992                 0.4416                 0.4981

                     16                     17                     18
                      A                      A                      A
 Frequencies --    107.8546               108.8755               112.0973
 Red. masses --     33.3346                39.8452                46.7050
 Frc consts  --      0.2285                 0.2783                 0.3458
 IR Inten    --      4.3812                 3.6800                10.7235

                     19                     20                     21
                      A                      A                      A
 Frequencies --    117.9518               127.9692               132.1647
 Red. masses --     41.0182                49.9030                35.6988
 Frc consts  --      0.3362                 0.4815                 0.3674
 IR Inten    --      7.7788                11.1618                 9.2981

                     22                     23                     24
                      A                      A                      A
 Frequencies --    136.9973               141.0048               144.1763
 Red. masses --     31.0957                34.3188                39.5300
 Frc consts  --      0.3439                 0.4020                 0.4841
 IR Inten    --      5.8898                 0.6839                 1.4367

                     25                     26                     27
                      A                      A                      A
 Frequencies --    147.5010               151.8110               153.9296
 Red. masses --     41.0034                46.9159                43.2204
 Frc consts  --      0.5256                 0.6371                 0.6034
 IR Inten    --      0.5526                 3.1237                 2.7225

                     28                     29                     30
                      A                      A                      A
 Frequencies --    155.8137               158.8854               161.0204
 Red. masses --     24.4348                38.6809                40.7503
 Frc consts  --      0.3495                 0.5753                 0.6225
 IR Inten    --      8.0276                 3.6708                 2.5625

                     31                     32                     33
                      A                      A                      A
 Frequencies --    168.9726               171.1262               180.5579
 Red. masses --     33.6123                43.3532                41.8067
 Frc consts  --      0.5654                 0.7480                 0.8030
 IR Inten    --      3.0729                 1.1066                 6.6251

                     34                     35                     36
                      A                      A                      A
 Frequencies --    184.9559               187.1892               196.0088
 Red. masses --     32.1044                45.6975                29.5954
 Frc consts  --      0.6471                 0.9434                 0.6699
 IR Inten    --      3.2178                 4.2526                 9.6260

                     37                     38                     39
                      A                      A                      A
 Frequencies --    198.2789               203.0362               207.8410
 Red. masses --     22.5078                25.1376                37.1178
 Frc consts  --      0.5214                 0.6105                 0.9447
 IR Inten    --      2.4595                 0.3207                 0.4016

                     40                     41                     42
                      A                      A                      A
 Frequencies --    220.9769               229.5566               232.4108
 Red. masses --     33.3545                12.0495                 7.8396
 Frc consts  --      0.9596                 0.3741                 0.2495
 IR Inten    --      0.3562                 7.3765                 3.0619

                     43                     44                     45
                      A                      A                      A
 Frequencies --    239.2384               247.4529               250.8086
 Red. masses --     33.2862                 6.9452                27.5120
 Frc consts  --      1.1225                 0.2506                 1.0197
 IR Inten    --      5.8378                 2.9292                 0.0632

                     46                     47                     48
                      A                      A                      A
 Frequencies --    255.2437               266.5456               276.1527
 Red. masses --      2.3760                38.1335                18.2656
 Frc consts  --      0.0912                 1.5962                 0.8207
 IR Inten    --      5.7468                 5.3021                11.4419

                     49                     50                     51
                      A                      A                      A
 Frequencies --    280.5751               283.3888               293.7593
 Red. masses --     10.4019                30.9730                23.0264
 Frc consts  --      0.4825                 1.4655                 1.1707
 IR Inten    --     16.6326                 2.9246                 2.7167

                     52                     53                     54
                      A                      A                      A
 Frequencies --    294.1621               296.8620               302.4059
 Red. masses --     21.0822                34.3150                32.6961
 Frc consts  --      1.0748                 1.7817                 1.7617
 IR Inten    --      2.4841                 3.9624                 9.8291

                     55                     56                     57
                      A                      A                      A
 Frequencies --    308.1554               311.6408               318.9034
 Red. masses --     23.0307                33.9412                35.4634
 Frc consts  --      1.2885                 1.9422                 2.1249
 IR Inten    --      0.4479                 1.8001                 3.3341

                     58                     59                     60
                      A                      A                      A
 Frequencies --    322.9377               333.3603               336.0559
 Red. masses --     30.6939                35.4128                30.9851
 Frc consts  --      1.8860                 2.3187                 2.0617
 IR Inten    --      2.8687                 1.5046                15.3288

                     61                     62                     63
                      A                      A                      A
 Frequencies --    346.2459               364.1751               370.4009
 Red. masses --     33.4521                41.3791                34.7401
 Frc consts  --      2.3629                 3.2333                 2.8082
 IR Inten    --      5.4836                 4.1487                11.3065

                     64                     65                     66
                      A                      A                      A
 Frequencies --    373.0589               380.8666               409.8615
 Red. masses --     36.1549                29.8478                33.6803
 Frc consts  --      2.9646                 2.5510                 3.3335
 IR Inten    --     21.9506                11.6033                 1.1026

                     67                     68                     69
                      A                      A                      A
 Frequencies --    414.4193               419.4558               428.3394
 Red. masses --     31.3646                36.8028                34.9055
 Frc consts  --      3.1737                 3.8151                 3.7733
 IR Inten    --      1.4364                 3.2442                 6.5307

                     70                     71                     72
                      A                      A                      A
 Frequencies --    431.2008               436.1803               437.3771
 Red. masses --     36.4740                35.5688                35.6205
 Frc consts  --      3.9957                 3.9870                 4.0148
 IR Inten    --      2.3332                 0.3107                 0.6819

                     73                     74                     75
                      A                      A                      A
 Frequencies --    447.8174               450.5388               456.6326
 Red. masses --     15.6438                38.5606                33.7240
 Frc consts  --      1.8484                 4.6117                 4.1431
 IR Inten    --      2.8636                 0.5478                 2.5752

                     76                     77                     78
                      A                      A                      A
 Frequencies --    463.1380               469.0361               475.6007
 Red. masses --      1.2521                22.9330                10.7384
 Frc consts  --      0.1582                 2.9725                 1.4311
 IR Inten    --      8.4324                20.4205                13.1556

                     79                     80                     81
                      A                      A                      A
 Frequencies --    480.8986               486.3244               561.7880
 Red. masses --     38.6200                35.2614                40.0273
 Frc consts  --      5.2622                 4.9136                 7.4431
 IR Inten    --     18.4867                13.6814               223.0470

                     82                     83                     84
                      A                      A                      A
 Frequencies --    564.3096               566.7032               709.8192
 Red. masses --     39.9894                39.5480                 1.0401
 Frc consts  --      7.5029                 7.4832                 0.3088
 IR Inten    --    200.9228                42.9887                14.9239

                     85                     86                     87
                      A                      A                      A
 Frequencies --    787.8582              2631.4224              2676.7014
 Red. masses --      1.0381                 1.0379                 1.0386
 Frc consts  --      0.3797                 4.2343                 4.3841
 IR Inten    --     11.7442                 4.0729                 0.4715

 - Thermochemistry -
 -------------------
 Temperature   298.150 Kelvin.  Pressure   1.00000 Atm.
 Atom     1 has atomic number 42 and mass  97.90550

 Molecular mass:  1522.60659 amu.
 Principal axes and moments of inertia in atomic units:
                           1         2         3
     Eigenvalues --  ******************************
           X            0.92820  -0.36906  -0.04734
           Y           -0.18331  -0.56428   0.80498
           Z            0.32380   0.73850   0.59141
 This molecule is an asymmetric top.
 Rotational symmetry number  1.
 Warning -- assumption of classical behavior for rotation
           may cause significant error
 Rotational temperatures (Kelvin)      0.00239     0.00158     0.00105
 Rotational constants (GHZ):           0.04987     0.03296     0.02195
 Zero-point vibrational energy     165785.9 (Joules/Mol)
                                   39.62378 (Kcal/Mol)
 Warning -- explicit consideration of  83 degrees of freedom as
           vibrations may cause significant error
 Vibrational temperatures:     34.31    60.01    63.27    70.49    80.30
          (Kelvin)             83.58    94.56   102.09   105.65   117.68
                              120.46   124.60   128.17   135.65   147.38
                              155.18   156.65   161.28   169.71   184.12
                              190.16   197.11   202.87   207.44   212.22
                              218.42   221.47   224.18   228.60   231.67
                              243.11   246.21   259.78   266.11   269.32
                              282.01   285.28   292.12   299.04   317.94
                              330.28   334.39   344.21   356.03   360.86
                              367.24   383.50   397.32   403.69   407.73
                              422.65   423.23   427.12   435.09   443.37
                              448.38   458.83   464.64   479.63   483.51
                              498.17   523.97   532.92   536.75   547.98
                              589.70   596.26   603.50   616.28   620.40
                              627.57   629.29   644.31   648.22   656.99
                              666.35   674.84   684.28   691.91   699.71
                              808.29   811.92   815.36  1021.27  1133.55
                             3786.03  3851.18

 Zero-point correction=                           0.063145 (Hartree/Particle)
 Thermal correction to Energy=                    0.108987
 Thermal correction to Enthalpy=                  0.109931
 Thermal correction to Gibbs Free Energy=        -0.017585
 Sum of electronic and zero-point Energies=          -8573.873285
 Sum of electronic and thermal Energies=             -8573.827443
 Sum of electronic and thermal Enthalpies=           -8573.826499
 Sum of electronic and thermal Free Energies=        -8573.954015

                     E (Thermal)             CV                S
                      KCal/Mol        Cal/Mol-Kelvin    Cal/Mol-Kelvin
 Total                   68.390            149.746            268.380
 Electronic               0.000              0.000              0.000
 Translational            0.889              2.981             47.835
 Rotational               0.889              2.981             40.318
 Vibrational             66.613            143.785            180.227
 Vibration     1          0.593              1.985              6.285
 Vibration     2          0.594              1.981              5.176
 Vibration     3          0.595              1.980              5.071
 Vibration     4          0.595              1.978              4.858
 Vibration     5          0.596              1.975              4.600
 Vibration     6          0.596              1.974              4.521
 Vibration     7          0.597              1.971              4.277
 Vibration     8          0.598              1.968              4.127
 Vibration     9          0.599              1.967              4.059
 Vibration    10          0.600              1.962              3.847
 Vibration    11          0.601              1.960              3.802
 Vibration    12          0.601              1.959              3.735
 Vibration    13          0.602              1.957              3.680
 Vibration    14          0.603              1.953              3.569
 Vibration    15          0.604              1.947              3.408
 Vibration    16          0.606              1.943              3.307
 Vibration    17          0.606              1.942              3.289
 Vibration    18          0.607              1.939              3.232
 Vibration    19          0.608              1.934              3.134
 Vibration    20          0.611              1.925              2.976
 Vibration    21          0.612              1.921              2.914
 Vibration    22          0.614              1.916              2.845
 Vibration    23          0.615              1.912              2.790
 Vibration    24          0.616              1.909              2.748
 Vibration    25          0.617              1.905              2.704
 Vibration    26          0.619              1.901              2.649
 Vibration    27          0.619              1.898              2.623
 Vibration    28          0.620              1.896              2.600
 Vibration    29          0.621              1.893              2.563
 Vibration    30          0.622              1.890              2.538
 Vibration    31          0.625              1.881              2.447
 Vibration    32          0.626              1.878              2.423
 Vibration    33          0.630              1.866              2.323
 Vibration    34          0.631              1.860              2.278
 Vibration    35          0.632              1.857              2.255
 Vibration    36          0.636              1.845              2.170
 Vibration    37          0.637              1.842              2.149
 Vibration    38          0.639              1.836              2.105
 Vibration    39          0.641              1.829              2.063
 Vibration    40          0.648              1.809              1.951
 Vibration    41          0.652              1.796              1.882
 Vibration    42          0.653              1.791              1.860
 Vibration    43          0.657              1.780              1.809
 Vibration    44          0.661              1.767              1.749
 Vibration    45          0.663              1.761              1.725
 Vibration    46          0.666              1.754              1.694
 Vibration    47          0.672              1.734              1.619
 Vibration    48          0.678              1.717              1.557
 Vibration    49          0.680              1.710              1.530
 Vibration    50          0.682              1.704              1.513
 Vibration    51          0.689              1.685              1.452
 Vibration    52          0.689              1.685              1.450
 Vibration    53          0.691              1.680              1.435
 Vibration    54          0.694              1.669              1.404
 Vibration    55          0.698              1.658              1.372
 Vibration    56          0.700              1.652              1.354
 Vibration    57          0.705              1.637              1.316
 Vibration    58          0.708              1.630              1.295
 Vibration    59          0.715              1.609              1.244
 Vibration    60          0.717              1.603              1.231
 Vibration    61          0.724              1.583              1.183
 Vibration    62          0.738              1.546              1.104
 Vibration    63          0.742              1.533              1.078
 Vibration    64          0.744              1.527              1.067
 Vibration    65          0.751              1.511              1.036
 Vibration    66          0.774              1.449              0.927
 Vibration    67          0.778              1.439              0.911
 Vibration    68          0.782              1.428              0.894
 Vibration    69          0.790              1.409              0.864
 Vibration    70          0.792              1.402              0.855
 Vibration    71          0.797              1.391              0.839
 Vibration    72          0.798              1.389              0.835
 Vibration    73          0.807              1.366              0.802
 Vibration    74          0.809              1.360              0.794
 Vibration    75          0.815              1.346              0.776
 Vibration    76          0.821              1.332              0.757
 Vibration    77          0.826              1.319              0.740
 Vibration    78          0.832              1.304              0.722
 Vibration    79          0.837              1.292              0.708
 Vibration    80          0.842              1.280              0.693
 Vibration    81          0.917              1.114              0.520
 Vibration    82          0.920              1.108              0.515
 Vibration    83          0.923              1.103              0.511

                           ! Non-Optimized Parameters !
 Normal termination of Gaussian 16 at Sat Dec 10 18:00:39 2022.
