 Gaussian 16, Revision C.01,
 Gaussian 16:  ES64L-G16RevC.01  3-Jul-2019

 -----------------------------------------------------------
 # opt=(calcfc,ts,noeigen) freq b3lyp/gen nosymm pseudo=read
 -----------------------------------------------------------

 -------------------
 Title Card Required
 -------------------
 Symbolic Z-matrix:
 Charge =  0 Multiplicity = 1

 SCF Done:  E(RB3LYP) =  -8573.82147459     A.U. after   34 cycles
 SCF Done:  E(RB3LYP) =  -8573.84094893     A.U. after   23 cycles
 SCF Done:  E(RB3LYP) =  -8573.85276145     A.U. after   22 cycles
 SCF Done:  E(RB3LYP) =  -8573.85954084     A.U. after   21 cycles
 SCF Done:  E(RB3LYP) =  -8573.86273710     A.U. after   20 cycles
 SCF Done:  E(RB3LYP) =  -8573.86609125     A.U. after   21 cycles
 SCF Done:  E(RB3LYP) =  -8573.86805174     A.U. after   21 cycles
 SCF Done:  E(RB3LYP) =  -8573.86904977     A.U. after   21 cycles
 SCF Done:  E(RB3LYP) =  -8573.87026632     A.U. after   22 cycles
 SCF Done:  E(RB3LYP) =  -8573.87269610     A.U. after   22 cycles
 SCF Done:  E(RB3LYP) =  -8573.88082642     A.U. after   15 cycles
 SCF Done:  E(RB3LYP) =  -8573.88082780     A.U. after   17 cycles
 SCF Done:  E(RB3LYP) =  -8573.88082963     A.U. after   16 cycles
 SCF Done:  E(RB3LYP) =  -8573.88083022     A.U. after   16 cycles
 SCF Done:  E(RB3LYP) =  -8573.88083032     A.U. after   16 cycles
 SCF Done:  E(RB3LYP) =  -8573.88083069     A.U. after   13 cycles
 SCF Done:  E(RB3LYP) =  -8573.88083098     A.U. after   14 cycles
 SCF Done:  E(RB3LYP) =  -8573.88083120     A.U. after   13 cycles
 SCF Done:  E(RB3LYP) =  -8573.88083126     A.U. after   14 cycles
 Optimization completed.
    -- Stationary point found.
 Normal termination of Gaussian 16 at Sun Dec 11 10:55:38 2022.

 ------------------------------------------------------------------
 #N Geom=AllCheck Guess=TCheck SCRF=Check GenChk RB3LYP/ChkBas Freq
 ------------------------------------------------------------------

 Structure from the checkpoint file:  "/home/chesagar/scratch/Gau-130139.chk"
 -------------------
 Title Card Required
 -------------------
 Charge =  0 Multiplicity = 1

                          Input orientation:
 ---------------------------------------------------------------------
 Center     Atomic      Atomic             Coordinates (Angstroms)
 Number     Number       Type             X           Y           Z
 ---------------------------------------------------------------------
      1         42           0        0.404474    1.856181   12.124651
      2         16           0        1.296902    4.000483   11.824838
      3         16           0       -1.624140    2.399400   13.212955
      4         16           0       -0.481054    1.048038   10.046609
      5         16           0        2.252501    0.287546   11.328495
      6         42           0       -2.118293    2.541975   10.936847
      7         16           0       -3.387332    1.755896    8.944521
      8         16           0       -1.527606    4.795281   10.565642
      9         42           0        0.282392    3.323875    9.690464
     10         16           0       -0.825706    2.952184    7.355163
     11         16           0        2.302851    2.355405    8.602775
     12         42           0        2.867394    2.611962   10.783497
     13         42           0       -2.585643    4.106266    8.613095
     14         16           0        4.357029    2.458925   13.026359
     15         16           0        4.723087    4.120394   10.419094
     16         16           0       -4.700500    5.155853    8.907537
     17         16           0       -2.040009    6.339504    7.592991
     18         42           0       -5.016181    3.098547    9.862791
     19         16           0       -6.962620    2.354797    9.458240
     20         16           0       -4.466508    3.209175   11.989082
     21         42           0        2.925556    0.840434   13.471230
     22         16           0        3.805794   -0.774491   14.525074
     23         16           0        1.131520    1.646969   14.524480
     24         42           0       -0.235887    5.167064    7.107742
     25         16           0        0.383640    5.553593    5.125810
     26         16           0        1.304265    5.613234    8.790050
     27         42           0        3.644760    4.906105    8.540947
     28         16           0        4.440707    4.147794    6.665744
     29          1           0        5.322712    5.595335    6.276987
     30         16           0        4.634654    6.818040    8.300238
     31          1           0        5.368278    6.384115    6.757238
 ---------------------------------------------------------------------

 SCF Done:  E(RB3LYP) =  -8573.88083126     A.U. after    3 cycles

 Alpha  occ. eigenvalues --  -88.93213 -88.93158 -88.93100 -88.92473 -88.92034
 Alpha  occ. eigenvalues --  -88.91964 -88.91670 -88.91528 -88.91349 -88.90560
 Alpha  occ. eigenvalues --  -88.90510 -88.90437 -88.89997 -88.89740 -88.89617
 Alpha  occ. eigenvalues --  -88.89464 -88.89400 -88.89197 -88.88412 -88.88143
 Alpha  occ. eigenvalues --   -8.00563  -8.00554  -8.00536  -8.00022  -7.99667
 Alpha  occ. eigenvalues --   -7.99568  -7.99099  -7.99042  -7.99027  -7.98305
 Alpha  occ. eigenvalues --   -7.98294  -7.98283  -7.97718  -7.97475  -7.97358
 Alpha  occ. eigenvalues --   -7.97160  -7.97028  -7.96919  -7.96312  -7.96023
 Alpha  occ. eigenvalues --   -5.96611  -5.96563  -5.96555  -5.96552  -5.96536
 Alpha  occ. eigenvalues --   -5.96511  -5.96486  -5.96461  -5.96426  -5.96032
 Alpha  occ. eigenvalues --   -5.96011  -5.95906  -5.95733  -5.95631  -5.95596
 Alpha  occ. eigenvalues --   -5.95551  -5.95515  -5.95445  -5.95151  -5.95104
 Alpha  occ. eigenvalues --   -5.95077  -5.95069  -5.95001  -5.95001  -5.94989
 Alpha  occ. eigenvalues --   -5.94899  -5.94873  -5.94390  -5.94349  -5.94327
 Alpha  occ. eigenvalues --   -5.94271  -5.94240  -5.94212  -5.94163  -5.94088
 Alpha  occ. eigenvalues --   -5.94085  -5.93784  -5.93644  -5.93610  -5.93570
 Alpha  occ. eigenvalues --   -5.93456  -5.93384  -5.93313  -5.93290  -5.93277
 Alpha  occ. eigenvalues --   -5.93156  -5.93147  -5.93114  -5.93036  -5.92955
 Alpha  occ. eigenvalues --   -5.92915  -5.92869  -5.92853  -5.92700  -5.92303
 Alpha  occ. eigenvalues --   -5.92253  -5.92187  -5.92042  -5.91956  -5.91884
 Alpha  occ. eigenvalues --   -2.59042  -2.57566  -2.57226  -2.57019  -2.56779
 Alpha  occ. eigenvalues --   -2.55795  -2.55562  -2.55380  -2.54719  -1.61846
 Alpha  occ. eigenvalues --   -1.61339  -1.60947  -1.60342  -1.60085  -1.59981
 Alpha  occ. eigenvalues --   -1.59945  -1.59771  -1.59733  -1.59524  -1.59276
 Alpha  occ. eigenvalues --   -1.59167  -1.59092  -1.58975  -1.58866  -1.58654
 Alpha  occ. eigenvalues --   -1.58543  -1.58190  -1.57991  -1.57793  -1.57564
 Alpha  occ. eigenvalues --   -1.57233  -1.57101  -1.56685  -1.56524  -1.56494
 Alpha  occ. eigenvalues --   -1.56396  -0.77854  -0.76101  -0.75857  -0.75403
 Alpha  occ. eigenvalues --   -0.75149  -0.74646  -0.74300  -0.74042  -0.73408
 Alpha  occ. eigenvalues --   -0.73249  -0.72561  -0.72459  -0.72220  -0.71719
 Alpha  occ. eigenvalues --   -0.71491  -0.71433  -0.71118  -0.70507  -0.69594
 Alpha  occ. eigenvalues --   -0.69356  -0.49847  -0.45204  -0.45012  -0.44642
 Alpha  occ. eigenvalues --   -0.43981  -0.43049  -0.42807  -0.42462  -0.42302
 Alpha  occ. eigenvalues --   -0.41836  -0.41447  -0.41284  -0.41045  -0.40363
 Alpha  occ. eigenvalues --   -0.40175  -0.39926  -0.39802  -0.39439  -0.39310
 Alpha  occ. eigenvalues --   -0.39230  -0.38894  -0.38544  -0.38398  -0.38293
 Alpha  occ. eigenvalues --   -0.37912  -0.37726  -0.37629  -0.37377  -0.36939
 Alpha  occ. eigenvalues --   -0.36658  -0.36542  -0.36311  -0.36127  -0.35978
 Alpha  occ. eigenvalues --   -0.35835  -0.35777  -0.35568  -0.35111  -0.34872
 Alpha  occ. eigenvalues --   -0.34859  -0.34374  -0.34089  -0.33835  -0.33230
 Alpha  occ. eigenvalues --   -0.33121  -0.32808  -0.32576  -0.32082  -0.31913
 Alpha  occ. eigenvalues --   -0.31867  -0.31240  -0.30994  -0.30814  -0.30507
 Alpha  occ. eigenvalues --   -0.30002  -0.29859  -0.29605  -0.29477  -0.29238
 Alpha  occ. eigenvalues --   -0.28766  -0.28372  -0.27580  -0.27134  -0.26607
 Alpha  occ. eigenvalues --   -0.26070  -0.25530  -0.24845  -0.24211
 Alpha virt. eigenvalues --   -0.18636  -0.17887  -0.16903  -0.16484  -0.15987
 Alpha virt. eigenvalues --   -0.15653  -0.15103  -0.14815  -0.14467  -0.14299
 Alpha virt. eigenvalues --   -0.14032  -0.13894  -0.13361  -0.12983  -0.12863

 Mulliken charges:
               1
     1  Mo  -0.247276
     2  S    0.355248
     3  S    0.043662
     4  S    0.221520
     5  S    0.094703
     6  Mo  -0.189562
     7  S    0.103131
     8  S    0.345379
     9  Mo  -0.683815
    10  S    0.110118
    11  S    0.156980
    12  Mo  -0.271770
    13  Mo  -0.325104
    14  S   -0.044874
    15  S   -0.010754
    16  S    0.007767
    17  S    0.049820
    18  Mo   0.291125
    19  S   -0.209492
    20  S   -0.038351
    21  Mo   0.312523
    22  S   -0.192459
    23  S   -0.013668
    24  Mo   0.347214
    25  S   -0.159964
    26  S   -0.066473
    27  Mo   0.049606
    28  S   -0.028261
    29  H    0.006404
    30  S   -0.018046
    31  H    0.004670
 Sum of Mulliken charges =  -0.00000

 Dipole moment (field-independent basis, Debye):
    X=              0.8600    Y=              0.5743    Z=             -3.0562  Tot=              3.2264
 Quadrupole moment (field-independent basis, Debye-Ang):
   XX=           -486.4531   YY=           -465.7118   ZZ=           -536.9295
   XY=              6.1053   XZ=              4.1348   YZ=             -4.0470

  Exact polarizability:    1136.641       6.478     640.074      43.113    -250.916     819.093
 Approx polarizability:    3241.415      15.732    2057.360     -33.235    -622.815    2680.563

 ******    1 imaginary frequencies (negative Signs) ******

                      1                      2                      3
                      A                      A                      A
 Frequencies --   -989.3529                25.1060                37.3330
 Red. masses --      1.1603                27.6104                31.3636
 Frc consts  --      0.6692                 0.0103                 0.0258
 IR Inten    --    358.3700                 0.0699                 0.2175

                      4                      5                      6
                      A                      A                      A
 Frequencies --     42.5617                47.3118                49.4000
 Red. masses --     26.1544                25.8971                31.9692
 Frc consts  --      0.0279                 0.0342                 0.0460
 IR Inten    --      0.1816                 0.4566                 0.2302

                      7                      8                      9
                      A                      A                      A
 Frequencies --     57.2459                63.5930                68.7966
 Red. masses --     33.6361                33.6989                31.3276
 Frc consts  --      0.0649                 0.0803                 0.0874
 IR Inten    --      0.0838                 1.0830                 1.2410

                     10                     11                     12
                      A                      A                      A
 Frequencies --     74.1559                76.0730                83.0361
 Red. masses --     38.7774                26.6173                36.9565
 Frc consts  --      0.1256                 0.0908                 0.1501
 IR Inten    --      0.6412                 1.3092                 0.7187

                     13                     14                     15
                      A                      A                      A
 Frequencies --     85.0488                87.1869                90.8294
 Red. masses --     36.6952                42.7033                32.7573
 Frc consts  --      0.1564                 0.1913                 0.1592
 IR Inten    --      1.4809                 2.3253                 1.2190

                     16                     17                     18
                      A                      A                      A
 Frequencies --     95.6434               102.5110               107.7288
 Red. masses --     37.6699                37.9183                35.6604
 Frc consts  --      0.2030                 0.2348                 0.2438
 IR Inten    --      0.6389                 1.6765                 4.9691

                     19                     20                     21
                      A                      A                      A
 Frequencies --    110.5803               115.3117               120.4785
 Red. masses --     40.9607                37.1829                42.1358
 Frc consts  --      0.2951                 0.2913                 0.3603
 IR Inten    --      0.1509                 0.6651                 0.5122

                     22                     23                     24
                      A                      A                      A
 Frequencies --    128.8763               134.6652               139.4728
 Red. masses --     49.2440                32.7059                42.8522
 Frc consts  --      0.4819                 0.3495                 0.4911
 IR Inten    --      2.3847                 1.4163                 0.7515

                     25                     26                     27
                      A                      A                      A
 Frequencies --    141.5259               145.4382               147.0515
 Red. masses --     50.4959                42.3025                42.9325
 Frc consts  --      0.5959                 0.5272                 0.5470
 IR Inten    --      4.8194                 0.5662                 1.2645

                     28                     29                     30
                      A                      A                      A
 Frequencies --    150.1536               153.8968               157.1808
 Red. masses --     42.4459                38.1503                39.4883
 Frc consts  --      0.5638                 0.5324                 0.5748
 IR Inten    --      9.7112                 0.6329                 0.5290

                     31                     32                     33
                      A                      A                      A
 Frequencies --    160.4279               168.9064               171.1293
 Red. masses --     30.7230                41.6932                40.2141
 Frc consts  --      0.4659                 0.7008                 0.6939
 IR Inten    --      1.2537                 0.8260                 0.1384

                     34                     35                     36
                      A                      A                      A
 Frequencies --    174.2777               183.5771               185.5946
 Red. masses --     45.4492                50.5695                42.7151
 Frc consts  --      0.8133                 1.0041                 0.8669
 IR Inten    --      2.3455                 4.8307                 0.7893

                     37                     38                     39
                      A                      A                      A
 Frequencies --    193.6691               195.4756               198.8289
 Red. masses --     46.2390                40.2708                38.0914
 Frc consts  --      1.0218                 0.9066                 0.8872
 IR Inten    --      9.9237                 1.4859                 1.2510

                     40                     41                     42
                      A                      A                      A
 Frequencies --    206.8487               210.6432               220.5183
 Red. masses --     40.6355                35.3865                44.7751
 Frc consts  --      1.0244                 0.9251                 1.2829
 IR Inten    --      0.5321                 0.7338                 1.0333

                     43                     44                     45
                      A                      A                      A
 Frequencies --    228.9858               233.9889               243.3825
 Red. masses --     35.4098                37.9173                36.9153
 Frc consts  --      1.0939                 1.2231                 1.2884
 IR Inten    --      0.6008                 2.8979                 0.7130

                     46                     47                     48
                      A                      A                      A
 Frequencies --    250.1213               262.0492               266.5083
 Red. masses --     34.6589                39.5595                30.8284
 Frc consts  --      1.2775                 1.6005                 1.2901
 IR Inten    --      1.9305                 4.2859                 1.0112

                     49                     50                     51
                      A                      A                      A
 Frequencies --    283.3899               287.1311               293.0231
 Red. masses --     34.7183                36.7017                37.1415
 Frc consts  --      1.6428                 1.7828                 1.8789
 IR Inten    --      5.7859                 0.8439                 7.5523

                     52                     53                     54
                      A                      A                      A
 Frequencies --    299.7011               301.2144               305.6938
 Red. masses --     37.9606                35.8959                35.2157
 Frc consts  --      2.0089                 1.9189                 1.9389
 IR Inten    --      1.5183                 3.4283                 1.3615

                     55                     56                     57
                      A                      A                      A
 Frequencies --    311.2843               315.0371               320.9203
 Red. masses --     36.2740                35.8424                38.3016
 Frc consts  --      2.0709                 2.0959                 2.3241
 IR Inten    --     23.1934                 1.8354                 1.8173

                     58                     59                     60
                      A                      A                      A
 Frequencies --    335.8942               342.0000               361.2882
 Red. masses --     42.6363                35.9330                41.5628
 Frc consts  --      2.8342                 2.4763                 3.1964
 IR Inten    --      2.4846                 1.7359                 2.5771

                     61                     62                     63
                      A                      A                      A
 Frequencies --    368.5588               373.8012               400.5623
 Red. masses --     36.1131                16.3551                30.9514
 Frc consts  --      2.8902                 1.3464                 2.9260
 IR Inten    --      1.5207                 4.7625                16.6933

                     64                     65                     66
                      A                      A                      A
 Frequencies --    404.4758               408.6559               416.4617
 Red. masses --     24.4839                35.5917                36.2792
 Frc consts  --      2.3600                 3.5020                 3.7073
 IR Inten    --     19.9838                 0.3108                 4.2707

                     67                     68                     69
                      A                      A                      A
 Frequencies --    423.6987               425.7098               429.9437
 Red. masses --     34.7555                33.4178                35.6204
 Frc consts  --      3.6761                 3.5682                 3.8795
 IR Inten    --      2.0934                13.3328                 1.1130

                     70                     71                     72
                      A                      A                      A
 Frequencies --    433.0671               435.5423               448.6624
 Red. masses --     35.2927                36.2363                38.5264
 Frc consts  --      3.8998                 4.0500                 4.5693
 IR Inten    --      9.9528                 2.8678                 3.3809

                     73                     74                     75
                      A                      A                      A
 Frequencies --    452.9375               454.1635               466.9630
 Red. masses --      1.6585                 3.1833                36.3339
 Frc consts  --      0.2005                 0.3869                 4.6680
 IR Inten    --      1.4167                 2.4926                 2.0292

                     76                     77                     78
                      A                      A                      A
 Frequencies --    471.5225               479.1439               482.1814
 Red. masses --     38.8657                35.0983                38.7771
 Frc consts  --      5.0912                 4.7475                 5.3119
 IR Inten    --     12.8774                21.2305                18.5604

                     79                     80                     81
                      A                      A                      A
 Frequencies --    484.9970               523.7420               561.6100
 Red. masses --     39.0213                10.3670                40.0801
 Frc consts  --      5.4079                 1.6755                 7.4482
 IR Inten    --     12.0368                72.8085               231.7282

                     82                     83                     84
                      A                      A                      A
 Frequencies --    563.4300               568.1357               950.9572
 Red. masses --     39.9911                39.0836                 1.0635
 Frc consts  --      7.4799                 7.4327                 0.5666
 IR Inten    --    166.7917                73.6777                35.1756

                     85                     86                     87
                      A                      A                      A
 Frequencies --   1026.4866              1126.5138              1838.9487
 Red. masses --      1.0109                 1.0115                 1.0190
 Frc consts  --      0.6276                 0.7563                 2.0303
 IR Inten    --      2.5110                 1.6820                17.1363

 - Thermochemistry -
 -------------------
 Temperature   298.150 Kelvin.  Pressure   1.00000 Atm.
 Atom     1 has atomic number 42 and mass  97.90550

 Molecular mass:  1522.60659 amu.
 Principal axes and moments of inertia in atomic units:
                           1         2         3
     Eigenvalues --  ******************************
           X            0.94239  -0.33151  -0.04478
           Y           -0.15816  -0.55951   0.81359
           Z            0.29476   0.75964   0.57971
 This molecule is an asymmetric top.
 Rotational symmetry number  1.
 Warning -- assumption of classical behavior for rotation
           may cause significant error
 Rotational temperatures (Kelvin)      0.00229     0.00156     0.00102
 Rotational constants (GHZ):           0.04780     0.03257     0.02135
    1 imaginary frequencies ignored.
 Zero-point vibrational energy     154142.3 (Joules/Mol)
                                   36.84089 (Kcal/Mol)
 Warning -- explicit consideration of  82 degrees of freedom as
           vibrations may cause significant error
 Vibrational temperatures:     36.12    53.71    61.24    68.07    71.08
          (Kelvin)             82.36    91.50    98.98   106.69   109.45
                              119.47   122.37   125.44   130.68   137.61
                              147.49   155.00   159.10   165.91   173.34
                              185.42   193.75   200.67   203.62   209.25
                              211.57   216.04   221.42   226.15   230.82
                              243.02   246.22   250.75   264.13   267.03
                              278.65   281.25   286.07   297.61   303.07
                              317.28   329.46   336.66   350.17   359.87
                              377.03   383.45   407.73   413.12   421.59
                              431.20   433.38   439.83   447.87   453.27
                              461.73   483.28   492.06   519.81   530.27
                              537.82   576.32   581.95   587.96   599.20
                              609.61   612.50   618.59   623.09   626.65
                              645.53   651.68   653.44   671.86   678.42
                              689.38   693.75   697.80   753.55   808.03
                              810.65   817.42  1368.22  1476.89  1620.80
                             2645.84

 Zero-point correction=                           0.058710 (Hartree/Particle)
 Thermal correction to Energy=                    0.103923
 Thermal correction to Enthalpy=                  0.104867
 Thermal correction to Gibbs Free Energy=        -0.022255
 Sum of electronic and zero-point Energies=          -8573.822122
 Sum of electronic and thermal Energies=             -8573.776908
 Sum of electronic and thermal Enthalpies=           -8573.775964
 Sum of electronic and thermal Free Energies=        -8573.903087

                     E (Thermal)             CV                S
                      KCal/Mol        Cal/Mol-Kelvin    Cal/Mol-Kelvin
 Total                   65.213            147.064            267.552
 Electronic               0.000              0.000              0.000
 Translational            0.889              2.981             47.835
 Rotational               0.889              2.981             40.399
 Vibrational             63.435            141.102            179.318
 Vibration     1          0.593              1.985              6.183
 Vibration     2          0.594              1.982              5.396
 Vibration     3          0.595              1.980              5.136
 Vibration     4          0.595              1.979              4.927
 Vibration     5          0.595              1.978              4.841
 Vibration     6          0.596              1.975              4.550
 Vibration     7          0.597              1.972              4.342
 Vibration     8          0.598              1.969              4.187
 Vibration     9          0.599              1.966              4.040
 Vibration    10          0.599              1.965              3.990
 Vibration    11          0.600              1.961              3.818
 Vibration    12          0.601              1.960              3.771
 Vibration    13          0.601              1.958              3.722
 Vibration    14          0.602              1.956              3.642
 Vibration    15          0.603              1.952              3.541
 Vibration    16          0.605              1.947              3.406
 Vibration    17          0.606              1.943              3.309
 Vibration    18          0.606              1.941              3.259
 Vibration    19          0.608              1.937              3.177
 Vibration    20          0.609              1.932              3.093
 Vibration    21          0.611              1.924              2.963
 Vibration    22          0.613              1.919              2.878
 Vibration    23          0.615              1.914              2.811
 Vibration    24          0.615              1.912              2.783
 Vibration    25          0.617              1.908              2.731
 Vibration    26          0.617              1.906              2.710
 Vibration    27          0.618              1.902              2.670
 Vibration    28          0.619              1.898              2.623
 Vibration    29          0.621              1.895              2.583
 Vibration    30          0.622              1.891              2.545
 Vibration    31          0.625              1.881              2.448
 Vibration    32          0.626              1.878              2.423
 Vibration    33          0.627              1.874              2.389
 Vibration    34          0.631              1.862              2.292
 Vibration    35          0.632              1.860              2.271
 Vibration    36          0.635              1.849              2.192
 Vibration    37          0.636              1.846              2.175
 Vibration    38          0.637              1.842              2.144
 Vibration    39          0.641              1.830              2.071
 Vibration    40          0.643              1.825              2.038
 Vibration    41          0.647              1.810              1.955
 Vibration    42          0.652              1.797              1.887
 Vibration    43          0.654              1.789              1.848
 Vibration    44          0.659              1.774              1.778
 Vibration    45          0.663              1.763              1.730
 Vibration    46          0.669              1.742              1.648
 Vibration    47          0.672              1.735              1.619
 Vibration    48          0.682              1.704              1.513
 Vibration    49          0.684              1.698              1.491
 Vibration    50          0.688              1.687              1.456
 Vibration    51          0.692              1.674              1.419
 Vibration    52          0.693              1.671              1.410
 Vibration    53          0.696              1.663              1.386
 Vibration    54          0.700              1.652              1.355
 Vibration    55          0.702              1.645              1.336
 Vibration    56          0.706              1.633              1.305
 Vibration    57          0.717              1.604              1.232
 Vibration    58          0.721              1.592              1.203
 Vibration    59          0.735              1.552              1.117
 Vibration    60          0.741              1.537              1.086
 Vibration    61          0.745              1.526              1.064
 Vibration    62          0.766              1.469              0.961
 Vibration    63          0.770              1.460              0.946
 Vibration    64          0.773              1.451              0.931
 Vibration    65          0.780              1.434              0.904
 Vibration    66          0.786              1.419              0.879
 Vibration    67          0.788              1.414              0.873
 Vibration    68          0.791              1.405              0.859
 Vibration    69          0.794              1.398              0.849
 Vibration    70          0.796              1.393              0.841
 Vibration    71          0.808              1.364              0.800
 Vibration    72          0.811              1.354              0.787
 Vibration    73          0.813              1.352              0.783
 Vibration    74          0.824              1.323              0.746
 Vibration    75          0.828              1.313              0.733
 Vibration    76          0.836              1.296              0.712
 Vibration    77          0.838              1.290              0.704
 Vibration    78          0.841              1.283              0.697
 Vibration    79          0.879              1.197              0.601
 Vibration    80          0.917              1.114              0.521
 Vibration    81          0.919              1.110              0.517
 Vibration    82          0.924              1.100              0.508

 Optimization completed.
    -- Stationary point found.
 Normal termination of Gaussian 16 at Sun Dec 11 11:08:13 2022.
