 Gaussian 16, Revision C.01,
 Gaussian 16:  ES64L-G16RevC.01  3-Jul-2019

 ---------------------------------------
 # opt freq b3lyp/gen nosymm pseudo=read
 ---------------------------------------

 -------------------
 Title Card Required
 -------------------
 Symbolic Z-matrix:
 Charge =  0 Multiplicity = 1

 SCF Done:  E(RB3LYP) =  -8980.17526413     A.U. after   37 cycles
 SCF Done:  E(RB3LYP) =  -8980.22559829     A.U. after   23 cycles
 SCF Done:  E(RB3LYP) =  -8980.27441177     A.U. after   26 cycles
 SCF Done:  E(RB3LYP) =  -8980.30011392     A.U. after   26 cycles
 SCF Done:  E(RB3LYP) =  -8980.31865283     A.U. after   27 cycles
 SCF Done:  E(RB3LYP) =  -8980.32742392     A.U. after   25 cycles
 SCF Done:  E(RB3LYP) =  -8980.33631531     A.U. after   26 cycles
 SCF Done:  E(RB3LYP) =  -8980.33954661     A.U. after   24 cycles
 SCF Done:  E(RB3LYP) =  -8980.34262591     A.U. after   26 cycles
 SCF Done:  E(RB3LYP) =  -8980.34422521     A.U. after   25 cycles
 SCF Done:  E(RB3LYP) =  -8980.34645657     A.U. after   20 cycles
 SCF Done:  E(RB3LYP) =  -8980.34646110     A.U. after   17 cycles
 SCF Done:  E(RB3LYP) =  -8980.34646495     A.U. after   17 cycles
 SCF Done:  E(RB3LYP) =  -8980.34646675     A.U. after   16 cycles
 SCF Done:  E(RB3LYP) =  -8980.34646775     A.U. after   15 cycles
 SCF Done:  E(RB3LYP) =  -8980.34646838     A.U. after   14 cycles
 SCF Done:  E(RB3LYP) =  -8980.34646868     A.U. after   14 cycles
 SCF Done:  E(RB3LYP) =  -8980.34646881     A.U. after   13 cycles
 SCF Done:  E(RB3LYP) =  -8980.34646892     A.U. after   13 cycles
 Optimization completed.
    -- Stationary point found.
 Normal termination of Gaussian 16 at Sun Dec 11 11:35:31 2022.

 ------------------------------------------------------------------
 #N Geom=AllCheck Guess=TCheck SCRF=Check GenChk RB3LYP/ChkBas Freq
 ------------------------------------------------------------------

 Structure from the checkpoint file:  "/home/chesagar/scratch/Gau-146060.chk"
 -------------------
 Title Card Required
 -------------------
 Charge =  0 Multiplicity = 1

                          Input orientation:
 ---------------------------------------------------------------------
 Center     Atomic      Atomic             Coordinates (Angstroms)
 Number     Number       Type             X           Y           Z
 ---------------------------------------------------------------------
      1         42           0        0.423533    1.888648   12.224445
      2         16           0        1.203734    4.082454   12.006007
      3         16           0       -1.645285    2.262856   13.258710
      4         16           0       -0.356267    1.048874   10.128316
      5         16           0        2.438811    0.478732   11.462070
      6         42           0       -2.108187    2.448450   10.940907
      7         16           0       -3.162972    1.703755    8.766738
      8         16           0       -1.546659    4.671472   10.636990
      9         42           0        0.430791    3.343494    9.799382
     10         16           0       -0.550777    2.902298    7.436454
     11         16           0        2.424406    2.304373    8.709475
     12         42           0        2.932219    2.917445   10.960176
     13         42           0       -2.304745    4.110103    8.524927
     14         16           0        4.349414    2.880025   13.168111
     15         16           0        4.361243    4.532536   10.357999
     16         16           0       -4.597632    4.994973    8.805683
     17         16           0       -1.951180    6.254245    7.586254
     18         42           0       -4.870265    2.925074    9.656063
     19         16           0       -6.776439    2.115695    9.208053
     20         16           0       -4.440900    2.963875   11.840982
     21         42           0        3.070517    1.119139   13.579035
     22         16           0        4.107608   -0.398112   14.633416
     23         16           0        1.195088    1.718634   14.628739
     24         42           0        0.094109    5.124783    7.191035
     25         16           0        0.201739    6.601411    5.335682
     26         16           0        1.047627    5.820635    9.218888
     27         42           0        2.766282    4.654578    8.206259
     28         16           0        2.084778    4.239153    5.978452
     29         16           0        4.328287    6.105920    7.535000
     30         42           0        2.522639    6.781118    5.762362
     31          6           0        2.349911    8.079428    4.224002
     32          6           0        2.872939    8.529123    6.744408
     33          6           0        4.194916    6.338902    4.709767
     34          8           0        2.285047    8.815915    3.343849
     35          8           0        3.013969    9.511186    7.322248
     36          8           0        5.093203    6.060113    4.049265
 ---------------------------------------------------------------------

 SCF Done:  E(RB3LYP) =  -8980.34646892     A.U. after    3 cycles

 Alpha  occ. eigenvalues --  -88.94399 -88.94008 -88.93132 -88.92937 -88.92207
 Alpha  occ. eigenvalues --  -88.92177 -88.92103 -88.91765 -88.91382 -88.90873
 Alpha  occ. eigenvalues --  -88.90727 -88.89880 -88.89759 -88.89263 -88.89208
 Alpha  occ. eigenvalues --  -88.89143 -88.89024 -88.88999 -88.88696 -88.88258
 Alpha  occ. eigenvalues --  -19.27857 -19.27505 -19.27308 -10.35597 -10.35405
 Alpha  occ. eigenvalues --  -10.35215  -8.01744  -8.01370  -8.00449  -8.00379
 Alpha  occ. eigenvalues --   -7.99708  -7.99624  -7.99495  -7.99272  -7.98781
 Alpha  occ. eigenvalues --   -7.98372  -7.98309  -7.97608  -7.97481  -7.96907
 Alpha  occ. eigenvalues --   -7.96800  -7.96736  -7.96693  -7.96642  -7.96584
 Alpha  occ. eigenvalues --   -7.96162  -5.97806  -5.97720  -5.97627  -5.97442
 Alpha  occ. eigenvalues --   -5.97335  -5.97256  -5.96481  -5.96441  -5.96433
 Alpha  occ. eigenvalues --   -5.96380  -5.96357  -5.96232  -5.95732  -5.95699
 Alpha  occ. eigenvalues --   -5.95669  -5.95594  -5.95588  -5.95528  -5.95513
 Alpha  occ. eigenvalues --   -5.95513  -5.95363  -5.95292  -5.95264  -5.95153
 Alpha  occ. eigenvalues --   -5.94844  -5.94737  -5.94678  -5.94475  -5.94465
 Alpha  occ. eigenvalues --   -5.94339  -5.94209  -5.94198  -5.94133  -5.93698
 Alpha  occ. eigenvalues --   -5.93573  -5.93558  -5.93437  -5.93412  -5.93277
 Alpha  occ. eigenvalues --   -5.93020  -5.92936  -5.92868  -5.92854  -5.92846
 Alpha  occ. eigenvalues --   -5.92834  -5.92718  -5.92688  -5.92671  -5.92632
 Alpha  occ. eigenvalues --   -5.92588  -5.92567  -5.92550  -5.92538  -5.92518
 Alpha  occ. eigenvalues --   -5.92510  -5.92488  -5.92414  -5.92138  -5.92104
 Alpha  occ. eigenvalues --   -5.92052  -2.57887  -2.57481  -2.57179  -2.56555
 Alpha  occ. eigenvalues --   -2.56321  -2.56310  -2.55768  -2.55274  -2.54762
 Alpha  occ. eigenvalues --   -2.54115  -1.60649  -1.60275  -1.60270  -1.60207
 Alpha  occ. eigenvalues --   -1.59958  -1.59861  -1.59855  -1.59645  -1.59474
 Alpha  occ. eigenvalues --   -1.59428  -1.59358  -1.58876  -1.58712  -1.58642
 Alpha  occ. eigenvalues --   -1.58570  -1.58545  -1.58307  -1.58163  -1.57859
 Alpha  occ. eigenvalues --   -1.57645  -1.57599  -1.57263  -1.57131  -1.56895
 Alpha  occ. eigenvalues --   -1.56834  -1.56742  -1.56570  -1.56538  -1.56521
 Alpha  occ. eigenvalues --   -1.56264  -1.18111  -1.17851  -1.17603  -0.78584
 Alpha  occ. eigenvalues --   -0.76479  -0.76113  -0.75828  -0.75378  -0.75173
 Alpha  occ. eigenvalues --   -0.74333  -0.74158  -0.73834  -0.72672  -0.72482
 Alpha  occ. eigenvalues --   -0.72179  -0.72077  -0.71885  -0.71414  -0.70684
 Alpha  occ. eigenvalues --   -0.70512  -0.70272  -0.69850  -0.69447  -0.61914
 Alpha  occ. eigenvalues --   -0.60545  -0.59941  -0.51887  -0.51297  -0.50341
 Alpha  occ. eigenvalues --   -0.50079  -0.49771  -0.49608  -0.49226  -0.47991
 Alpha  occ. eigenvalues --   -0.47541  -0.45951  -0.45291  -0.45189  -0.44532
 Alpha  occ. eigenvalues --   -0.43003  -0.42705  -0.42690  -0.42430  -0.42150
 Alpha  occ. eigenvalues --   -0.41935  -0.41764  -0.41446  -0.41009  -0.40355
 Alpha  occ. eigenvalues --   -0.40091  -0.39709  -0.39569  -0.39430  -0.39249
 Alpha  occ. eigenvalues --   -0.39002  -0.38868  -0.38559  -0.38446  -0.38217
 Alpha  occ. eigenvalues --   -0.37983  -0.37879  -0.37509  -0.37239  -0.37033
 Alpha  occ. eigenvalues --   -0.36776  -0.36642  -0.36488  -0.36338  -0.36064
 Alpha  occ. eigenvalues --   -0.35864  -0.35613  -0.35425  -0.35162  -0.35059
 Alpha  occ. eigenvalues --   -0.34712  -0.34264  -0.34114  -0.33511  -0.33447
 Alpha  occ. eigenvalues --   -0.33073  -0.32681  -0.32477  -0.32161  -0.31993
 Alpha  occ. eigenvalues --   -0.31578  -0.31373  -0.30967  -0.30664  -0.30508
 Alpha  occ. eigenvalues --   -0.30265  -0.29878  -0.29595  -0.29215  -0.29164
 Alpha  occ. eigenvalues --   -0.28436  -0.28178  -0.27236  -0.26989  -0.26751
 Alpha  occ. eigenvalues --   -0.26447  -0.26298  -0.25307  -0.25043  -0.24431
 Alpha  occ. eigenvalues --   -0.23077
 Alpha virt. eigenvalues --   -0.18538  -0.17893  -0.17652  -0.16251  -0.15955
 Alpha virt. eigenvalues --   -0.15505  -0.15334  -0.14850  -0.14610  -0.14178
 Alpha virt. eigenvalues --   -0.14057  -0.13777  -0.13588  -0.12881  -0.12547

 Mulliken charges:
               1
     1  Mo  -0.222534
     2  S    0.373374
     3  S    0.055310
     4  S    0.213477
     5  S    0.080878
     6  Mo  -0.237581
     7  S    0.095023
     8  S    0.337659
     9  Mo  -0.860559
    10  S    0.157454
    11  S    0.200475
    12  Mo  -0.144752
    13  Mo  -0.262508
    14  S   -0.026197
    15  S    0.004458
    16  S    0.012016
    17  S    0.087228
    18  Mo   0.279294
    19  S   -0.190848
    20  S   -0.003164
    21  Mo   0.270278
    22  S   -0.188900
    23  S   -0.017650
    24  Mo  -0.266206
    25  S    0.089047
    26  S    0.250479
    27  Mo  -0.271093
    28  S    0.204294
    29  S    0.018029
    30  Mo  -0.118414
    31  C    0.229542
    32  C    0.237296
    33  C    0.246658
    34  O   -0.214637
    35  O   -0.205793
    36  O   -0.211432
 Sum of Mulliken charges =  -0.00000

 Dipole moment (field-independent basis, Debye):
    X=              0.9092    Y=              0.9751    Z=             -3.5945  Tot=              3.8338
 Quadrupole moment (field-independent basis, Debye-Ang):
   XX=           -539.4903   YY=           -513.4614   ZZ=           -598.9920
   XY=             11.7885   XZ=             -1.1484   YZ=             -4.3001

  Exact polarizability:    1171.968      72.360     767.020      14.536    -356.979     970.781
 Approx polarizability:    3919.037     255.672    2505.842     -58.635    -951.224    2991.475

                      1                      2                      3
                      A                      A                      A
 Frequencies --     23.5874                31.0329                36.6209
 Red. masses --     18.4951                24.4253                32.3469
 Frc consts  --      0.0061                 0.0139                 0.0256
 IR Inten    --      0.0125                 0.2859                 0.5040

                      4                      5                      6
                      A                      A                      A
 Frequencies --     43.3940                44.8844                50.7845
 Red. masses --     32.8143                30.1810                25.3538
 Frc consts  --      0.0364                 0.0358                 0.0385
 IR Inten    --      0.3872                 0.2101                 0.1702

                      7                      8                      9
                      A                      A                      A
 Frequencies --     55.0800                59.9570                66.8504
 Red. masses --     29.1625                32.9215                19.8040
 Frc consts  --      0.0521                 0.0697                 0.0521
 IR Inten    --      0.2856                 0.2144                 0.0672

                     10                     11                     12
                      A                      A                      A
 Frequencies --     68.2614                75.6636                80.1346
 Red. masses --     41.2215                31.5687                28.5200
 Frc consts  --      0.1132                 0.1065                 0.1079
 IR Inten    --      1.4129                 0.0543                 0.5048

                     13                     14                     15
                      A                      A                      A
 Frequencies --     81.3498                85.4490                87.7685
 Red. masses --     38.3350                39.6541                34.0063
 Frc consts  --      0.1495                 0.1706                 0.1543
 IR Inten    --      0.3101                 1.1364                 1.1728

                     16                     17                     18
                      A                      A                      A
 Frequencies --     93.6853                96.1953               101.4879
 Red. masses --     28.7544                23.5402                27.2848
 Frc consts  --      0.1487                 0.1283                 0.1656
 IR Inten    --      0.4910                 1.1445                 0.6989

                     19                     20                     21
                      A                      A                      A
 Frequencies --    104.6724               108.8905               109.6245
 Red. masses --     20.9692                43.7116                38.6294
 Frc consts  --      0.1354                 0.3054                 0.2735
 IR Inten    --      0.3647                 1.6907                 0.7953

                     22                     23                     24
                      A                      A                      A
 Frequencies --    114.2318               120.5198               124.2944
 Red. masses --     34.2085                46.9992                43.1146
 Frc consts  --      0.2630                 0.4022                 0.3924
 IR Inten    --      1.3848                 2.4859                 0.1716

                     25                     26                     27
                      A                      A                      A
 Frequencies --    128.1313               131.1159               137.9963
 Red. masses --     44.8223                44.7305                51.2958
 Frc consts  --      0.4336                 0.4531                 0.5755
 IR Inten    --      1.4021                 0.2275                 1.5775

                     28                     29                     30
                      A                      A                      A
 Frequencies --    141.5240               145.3881               147.8958
 Red. masses --     47.6969                52.6678                45.4522
 Frc consts  --      0.5629                 0.6559                 0.5858
 IR Inten    --      0.1982                 6.6605                 0.1476

                     31                     32                     33
                      A                      A                      A
 Frequencies --    150.4894               152.2470               153.8611
 Red. masses --     46.2790                41.1307                38.6605
 Frc consts  --      0.6175                 0.5617                 0.5392
 IR Inten    --      1.3334                 1.5482                 1.0306

                     34                     35                     36
                      A                      A                      A
 Frequencies --    159.2109               159.8516               165.7080
 Red. masses --     38.4581                44.7996                41.4407
 Frc consts  --      0.5744                 0.6745                 0.6704
 IR Inten    --      0.5846                 2.7318                 2.4670

                     37                     38                     39
                      A                      A                      A
 Frequencies --    167.9328               170.7431               174.6188
 Red. masses --     43.2829                48.8953                47.2647
 Frc consts  --      0.7192                 0.8399                 0.8491
 IR Inten    --      3.4705                 0.4246                 4.0238

                     40                     41                     42
                      A                      A                      A
 Frequencies --    179.5428               185.5423               189.9409
 Red. masses --     48.4126                46.1069                46.3526
 Frc consts  --      0.9195                 0.9352                 0.9853
 IR Inten    --      1.9674                 0.5026                 8.8795

                     43                     44                     45
                      A                      A                      A
 Frequencies --    198.6263               203.1867               211.9999
 Red. masses --     40.0864                49.7950                38.7479
 Frc consts  --      0.9318                 1.2112                 1.0261
 IR Inten    --      0.9167                 4.9128                 3.5944

                     46                     47                     48
                      A                      A                      A
 Frequencies --    216.7932               225.1335               227.2177
 Red. masses --     45.5802                34.6301                37.8333
 Frc consts  --      1.2622                 1.0342                 1.1508
 IR Inten    --      7.2777                 4.0889                 1.6560

                     49                     50                     51
                      A                      A                      A
 Frequencies --    229.7803               236.2447               240.3755
 Red. masses --     34.7572                37.5335                34.3194
 Frc consts  --      1.0812                 1.2342                 1.1683
 IR Inten    --      1.7937                 3.7251                 1.9495

                     52                     53                     54
                      A                      A                      A
 Frequencies --    244.7385               251.7876               261.5047
 Red. masses --     34.3417                33.1491                35.8701
 Frc consts  --      1.2119                 1.2382                 1.4452
 IR Inten    --      0.8071                 8.6994                 0.7899

                     55                     56                     57
                      A                      A                      A
 Frequencies --    270.4491               271.5264               274.3048
 Red. masses --     36.2978                33.6701                34.4308
 Frc consts  --      1.5642                 1.4626                 1.5264
 IR Inten    --      4.2237                 2.0683                 2.1826

                     58                     59                     60
                      A                      A                      A
 Frequencies --    285.6817               291.6556               297.5459
 Red. masses --     35.5884                36.7536                36.6497
 Frc consts  --      1.7113                 1.8420                 1.9117
 IR Inten    --      0.8125                 5.9339                11.0185

                     61                     62                     63
                      A                      A                      A
 Frequencies --    308.1255               310.8457               322.8413
 Red. masses --     36.8009                38.5317                34.0695
 Frc consts  --      2.0586                 2.1936                 2.0922
 IR Inten    --      0.1143                 1.2284                 0.3355

                     64                     65                     66
                      A                      A                      A
 Frequencies --    332.1913               334.4457               341.8140
 Red. masses --     36.2496                35.6249                35.1881
 Frc consts  --      2.3568                 2.3478                 2.4223
 IR Inten    --      3.8206                 7.4165                 1.6137

                     67                     68                     69
                      A                      A                      A
 Frequencies --    347.2293               356.4708               363.6589
 Red. masses --     36.9082                33.5969                37.9769
 Frc consts  --      2.6218                 2.5153                 2.9591
 IR Inten    --      2.3588                 2.7731                 2.9699

                     70                     71                     72
                      A                      A                      A
 Frequencies --    369.3037               374.2231               378.1317
 Red. masses --     36.8794                35.9416                22.7430
 Frc consts  --      2.9635                 2.9656                 1.9160
 IR Inten    --      1.7813                 2.0775                 4.1179

                     73                     74                     75
                      A                      A                      A
 Frequencies --    386.0146               392.6371               395.6994
 Red. masses --     19.6600                36.0969                34.5062
 Frc consts  --      1.7260                 3.2787                 3.1833
 IR Inten    --     12.0907                 1.1666                 8.7332

                     76                     77                     78
                      A                      A                      A
 Frequencies --    401.8782               407.0089               413.5510
 Red. masses --     13.9199                34.7202                36.8462
 Frc consts  --      1.3246                 3.3888                 3.7128
 IR Inten    --      0.9814                 2.6853                 2.1617

                     79                     80                     81
                      A                      A                      A
 Frequencies --    417.3501               419.6702               423.4077
 Red. masses --     14.0119                35.9266                24.0297
 Frc consts  --      1.4380                 3.7281                 2.5381
 IR Inten    --      1.2175                11.7184                15.5567

                     82                     83                     84
                      A                      A                      A
 Frequencies --    425.7167               428.0048               434.2952
 Red. masses --     20.3315                33.3966                34.9434
 Frc consts  --      2.1710                 3.6045                 3.8832
 IR Inten    --     22.5113                 9.5910                20.9283

                     85                     86                     87
                      A                      A                      A
 Frequencies --    435.4654               438.2596               444.8040
 Red. masses --     33.6580                38.2607                38.3668
 Frc consts  --      3.7605                 4.3298                 4.4724
 IR Inten    --      1.8017                 4.0844                 8.1165

                     88                     89                     90
                      A                      A                      A
 Frequencies --    450.3494               455.8137               457.7987
 Red. masses --     15.4698                38.9120                15.7854
 Frc consts  --      1.8486                 4.7633                 1.9492
 IR Inten    --     22.3188                 6.4031                55.1292

                     91                     92                     93
                      A                      A                      A
 Frequencies --    461.6970               465.5335               466.5100
 Red. masses --     39.0012                39.5811                39.4811
 Frc consts  --      4.8983                 5.0541                 5.0625
 IR Inten    --      8.9791                 6.1154                25.1268

                     94                     95                     96
                      A                      A                      A
 Frequencies --    474.7092               494.3774               554.2879
 Red. masses --     39.7346                14.3465                12.7050
 Frc consts  --      5.2756                 2.0659                 2.2998
 IR Inten    --      7.4872                10.8996                15.8593

                     97                     98                     99
                      A                      A                      A
 Frequencies --    563.4772               565.5310               571.6102
 Red. masses --     39.8952                39.3285                14.2863
 Frc consts  --      7.4632                 7.4109                 2.7502
 IR Inten    --    254.1972               163.7025                65.8728

                    100                    101                    102
                      A                      A                      A
 Frequencies --   2084.1948              2089.4851              2133.0586
 Red. masses --     13.3961                13.3955                13.3610
 Frc consts  --     34.2850                34.4578                35.8176
 IR Inten    --    613.0900               687.6125              2878.7768

 - Thermochemistry -
 -------------------
 Temperature   298.150 Kelvin.  Pressure   1.00000 Atm.
 Atom     1 has atomic number 42 and mass  97.90550

 Molecular mass:  1702.48118 amu.
 Principal axes and moments of inertia in atomic units:
                           1         2         3
     Eigenvalues --  ******************************
           X           -0.28302   0.95452  -0.09380
           Y           -0.58020  -0.09251   0.80920
           Z            0.76372   0.28344   0.57999
 This molecule is an asymmetric top.
 Rotational symmetry number  1.
 Warning -- assumption of classical behavior for rotation
           may cause significant error
 Rotational temperatures (Kelvin)      0.00163     0.00134     0.00080
 Rotational constants (GHZ):           0.03394     0.02788     0.01677
 Zero-point vibrational energy     190422.7 (Joules/Mol)
                                   45.51212 (Kcal/Mol)
 Warning -- explicit consideration of  99 degrees of freedom as
           vibrations may cause significant error
 Vibrational temperatures:     33.94    44.65    52.69    62.43    64.58
          (Kelvin)             73.07    79.25    86.26    96.18    98.21
                              108.86   115.30   117.04   122.94   126.28
                              134.79   138.40   146.02   150.60   156.67
                              157.73   164.35   173.40   178.83   184.35
                              188.65   198.55   203.62   209.18   212.79
                              216.52   219.05   221.37   229.07   229.99
                              238.42   241.62   245.66   251.24   258.32
                              266.95   273.28   285.78   292.34   305.02
                              311.92   323.92   326.92   330.60   339.90
                              345.85   352.12   362.27   376.25   389.12
                              390.67   394.66   411.03   419.63   428.10
                              443.32   447.24   464.50   477.95   481.19
                              491.79   499.59   512.88   523.22   531.35
                              538.42   544.05   555.39   564.92   569.32
                              578.21   585.60   595.01   600.47   603.81
                              609.19   612.51   615.80   624.85   626.54
                              630.56   639.97   647.95   655.81   658.67
                              664.28   669.80   671.20   683.00   711.30
                              797.50   810.72   813.67   822.42  2998.69
                             3006.30  3069.00

 Zero-point correction=                           0.072528 (Hartree/Particle)
 Thermal correction to Energy=                    0.125828
 Thermal correction to Enthalpy=                  0.126772
 Thermal correction to Gibbs Free Energy=        -0.017025
 Sum of electronic and zero-point Energies=          -8980.273941
 Sum of electronic and thermal Energies=             -8980.220641
 Sum of electronic and thermal Enthalpies=           -8980.219697
 Sum of electronic and thermal Free Energies=        -8980.363494

                     E (Thermal)             CV                S
                      KCal/Mol        Cal/Mol-Kelvin    Cal/Mol-Kelvin
 Total                   78.958            174.455            302.645
 Electronic               0.000              0.000              0.000
 Translational            0.889              2.981             48.168
 Rotational               0.889              2.981             41.134
 Vibrational             77.181            168.493            213.343
 Vibration     1          0.593              1.985              6.307
 Vibration     2          0.594              1.983              5.762
 Vibration     3          0.594              1.982              5.434
 Vibration     4          0.595              1.980              5.098
 Vibration     5          0.595              1.979              5.031
 Vibration     6          0.595              1.977              4.787
 Vibration     7          0.596              1.976              4.626
 Vibration     8          0.597              1.973              4.459
 Vibration     9          0.598              1.970              4.244
 Vibration    10          0.598              1.969              4.203
 Vibration    11          0.599              1.965              4.000
 Vibration    12          0.600              1.963              3.888
 Vibration    13          0.600              1.962              3.858
 Vibration    14          0.601              1.959              3.762
 Vibration    15          0.601              1.958              3.709
 Vibration    16          0.603              1.954              3.582
 Vibration    17          0.603              1.952              3.530
 Vibration    18          0.604              1.948              3.426
 Vibration    19          0.605              1.945              3.365
 Vibration    20          0.606              1.942              3.289
 Vibration    21          0.606              1.942              3.276
 Vibration    22          0.607              1.938              3.196
 Vibration    23          0.609              1.932              3.092
 Vibration    24          0.610              1.929              3.032
 Vibration    25          0.611              1.925              2.974
 Vibration    26          0.612              1.922              2.930
 Vibration    27          0.614              1.915              2.831
 Vibration    28          0.615              1.912              2.783
 Vibration    29          0.617              1.908              2.732
 Vibration    30          0.617              1.905              2.699
 Vibration    31          0.618              1.902              2.666
 Vibration    32          0.619              1.900              2.644
 Vibration    33          0.619              1.898              2.624
 Vibration    34          0.621              1.892              2.559
 Vibration    35          0.622              1.892              2.552
 Vibration    36          0.624              1.885              2.484
 Vibration    37          0.625              1.882              2.458
 Vibration    38          0.626              1.878              2.427
 Vibration    39          0.627              1.874              2.385
 Vibration    40          0.629              1.867              2.333
 Vibration    41          0.632              1.860              2.272
 Vibration    42          0.633              1.854              2.228
 Vibration    43          0.637              1.842              2.146
 Vibration    44          0.639              1.835              2.104
 Vibration    45          0.643              1.823              2.026
 Vibration    46          0.646              1.815              1.986
 Vibration    47          0.650              1.803              1.917
 Vibration    48          0.651              1.800              1.901
 Vibration    49          0.652              1.796              1.881
 Vibration    50          0.655              1.785              1.831
 Vibration    51          0.657              1.779              1.800
 Vibration    52          0.660              1.771              1.768
 Vibration    53          0.664              1.760              1.718
 Vibration    54          0.669              1.743              1.652
 Vibration    55          0.674              1.728              1.593
 Vibration    56          0.675              1.726              1.586
 Vibration    57          0.677              1.721              1.569
 Vibration    58          0.683              1.700              1.499
 Vibration    59          0.687              1.689              1.464
 Vibration    60          0.691              1.678              1.431
 Vibration    61          0.698              1.658              1.372
 Vibration    62          0.700              1.653              1.358
 Vibration    63          0.708              1.630              1.296
 Vibration    64          0.714              1.611              1.249
 Vibration    65          0.716              1.607              1.239
 Vibration    66          0.721              1.592              1.204
 Vibration    67          0.725              1.581              1.179
 Vibration    68          0.732              1.562              1.137
 Vibration    69          0.737              1.547              1.106
 Vibration    70          0.742              1.535              1.083
 Vibration    71          0.745              1.525              1.062
 Vibration    72          0.748              1.517              1.047
 Vibration    73          0.755              1.500              1.016
 Vibration    74          0.760              1.486              0.990
 Vibration    75          0.762              1.479              0.979
 Vibration    76          0.767              1.466              0.956
 Vibration    77          0.772              1.455              0.937
 Vibration    78          0.777              1.441              0.914
 Vibration    79          0.780              1.433              0.901
 Vibration    80          0.782              1.427              0.893
 Vibration    81          0.786              1.419              0.880
 Vibration    82          0.788              1.414              0.873
 Vibration    83          0.790              1.409              0.865
 Vibration    84          0.795              1.395              0.845
 Vibration    85          0.796              1.393              0.841
 Vibration    86          0.798              1.387              0.832
 Vibration    87          0.804              1.372              0.812
 Vibration    88          0.809              1.360              0.795
 Vibration    89          0.814              1.348              0.778
 Vibration    90          0.816              1.344              0.773
 Vibration    91          0.819              1.335              0.761
 Vibration    92          0.823              1.327              0.750
 Vibration    93          0.824              1.324              0.747
 Vibration    94          0.831              1.306              0.724
 Vibration    95          0.850              1.262              0.672
 Vibration    96          0.910              1.130              0.535
 Vibration    97          0.919              1.110              0.517
 Vibration    98          0.921              1.106              0.513
 Vibration    99          0.928              1.093              0.501

                           ! Non-Optimized Parameters !
 Normal termination of Gaussian 16 at Sun Dec 11 11:54:58 2022.
