 Gaussian 16, Revision C.01,
 Gaussian 16:  ES64L-G16RevC.01  3-Jul-2019

 ---------------------------------------
 # opt freq b3lyp/gen nosymm pseudo=read
 ---------------------------------------

 -------------------
 Title Card Required
 -------------------
 Symbolic Z-matrix:
 Charge =  0 Multiplicity = 1

 SCF Done:  E(RB3LYP) =  -8753.66188538     A.U. after   37 cycles
 SCF Done:  E(RB3LYP) =  -8753.66449718     A.U. after   23 cycles
 SCF Done:  E(RB3LYP) =  -8753.66576597     A.U. after   25 cycles
 SCF Done:  E(RB3LYP) =  -8753.66611799     A.U. after   22 cycles
 SCF Done:  E(RB3LYP) =  -8753.66636157     A.U. after   23 cycles
 SCF Done:  E(RB3LYP) =  -8753.66640653     A.U. after   20 cycles
 SCF Done:  E(RB3LYP) =  -8753.66644597     A.U. after   21 cycles
 SCF Done:  E(RB3LYP) =  -8753.66645844     A.U. after   20 cycles
 SCF Done:  E(RB3LYP) =  -8753.66646690     A.U. after   20 cycles
 SCF Done:  E(RB3LYP) =  -8753.66647261     A.U. after   19 cycles
 SCF Done:  E(RB3LYP) =  -8753.66647514     A.U. after   18 cycles
 SCF Done:  E(RB3LYP) =  -8753.66647597     A.U. after   16 cycles
 SCF Done:  E(RB3LYP) =  -8753.66647640     A.U. after   16 cycles
 Optimization completed.
    -- Stationary point found.
 Normal termination of Gaussian 16 at Mon Dec 12 09:27:28 2022.

 ------------------------------------------------------------------
 #N Geom=AllCheck Guess=TCheck SCRF=Check GenChk RB3LYP/ChkBas Freq
 ------------------------------------------------------------------

 Structure from the checkpoint file:  "/home/chesagar/scratch/Gau-116255.chk"
 -------------------
 Title Card Required
 -------------------
 Charge =  0 Multiplicity = 1

                          Input orientation:
 ---------------------------------------------------------------------
 Center     Atomic      Atomic             Coordinates (Angstroms)
 Number     Number       Type             X           Y           Z
 ---------------------------------------------------------------------
      1         42           0        0.349460    2.184547   12.286964
      2         16           0        1.243959    4.233278   11.628237
      3         16           0       -1.606090    2.915810   13.297937
      4         16           0       -0.433825    0.992515   10.338369
      5         16           0        2.337309    0.530440   11.614551
      6         42           0       -2.076621    2.645505   10.998696
      7         16           0       -3.203855    1.537738    9.030716
      8         16           0       -1.374916    4.753653   10.204564
      9         42           0        0.455890    3.047786    9.565871
     10         16           0       -0.573112    2.515211    7.326477
     11         16           0        2.385857    1.920340    8.599862
     12         42           0        2.872026    2.804180   10.779726
     13         42           0       -2.333734    3.772527    8.378960
     14         16           0        4.300273    3.192734   12.904304
     15         16           0        4.389696    4.421385    9.977794
     16         16           0       -4.545549    4.815773    8.434518
     17         16           0       -2.011319    5.573922    6.771653
     18         42           0       -4.858684    2.974957    9.710958
     19         16           0       -6.797509    2.161772    9.425300
     20         16           0       -4.369151    3.464191   11.820408
     21         42           0        3.069705    1.472993   13.571052
     22         16           0        4.186473    0.131292   14.770471
     23         16           0        1.219705    2.220977   14.616077
     24         42           0        0.132980    4.775992    6.890545
     25         16           0        0.494187    6.284888    4.979051
     26         16           0        1.440369    6.063424    8.422375
     27         42           0        2.937746    4.215744    8.146369
     28         16           0        2.141620    3.702657    5.839989
     29         16           0        4.607365    5.555624    6.974392
     30         42           0        2.468147    6.058050    6.184603
     31          6           0        3.433743    6.469956    4.343340
     32          8           0        3.954178    6.684210    3.352481
 ---------------------------------------------------------------------

 SCF Done:  E(RB3LYP) =  -8753.66647640     A.U. after    3 cycles

 Alpha  occ. eigenvalues --  -88.94065 -88.94049 -88.92902 -88.92790 -88.92354
 Alpha  occ. eigenvalues --  -88.92224 -88.91283 -88.91217 -88.90595 -88.89896
 Alpha  occ. eigenvalues --  -88.89731 -88.89674 -88.89598 -88.89515 -88.89326
 Alpha  occ. eigenvalues --  -88.88945 -88.88924 -88.88863 -88.88718 -88.88284
 Alpha  occ. eigenvalues --  -19.30134 -10.36880  -8.01400  -8.01377  -8.00235
 Alpha  occ. eigenvalues --   -8.00162  -7.99856  -7.99742  -7.98762  -7.98677
 Alpha  occ. eigenvalues --   -7.97966  -7.97466  -7.97437  -7.97410  -7.97342
 Alpha  occ. eigenvalues --   -7.97233  -7.96928  -7.96611  -7.96538  -7.96515
 Alpha  occ. eigenvalues --   -7.96463  -7.96163  -5.97443  -5.97413  -5.97371
 Alpha  occ. eigenvalues --   -5.97364  -5.97310  -5.97277  -5.96270  -5.96230
 Alpha  occ. eigenvalues --   -5.96227  -5.96148  -5.96138  -5.96039  -5.95904
 Alpha  occ. eigenvalues --   -5.95840  -5.95762  -5.95740  -5.95718  -5.95615
 Alpha  occ. eigenvalues --   -5.94787  -5.94756  -5.94701  -5.94685  -5.94643
 Alpha  occ. eigenvalues --   -5.94551  -5.94047  -5.93945  -5.93822  -5.93557
 Alpha  occ. eigenvalues --   -5.93536  -5.93503  -5.93427  -5.93404  -5.93385
 Alpha  occ. eigenvalues --   -5.93360  -5.93340  -5.93316  -5.93281  -5.93237
 Alpha  occ. eigenvalues --   -5.93211  -5.93187  -5.93160  -5.93022  -5.93020
 Alpha  occ. eigenvalues --   -5.92853  -5.92779  -5.92664  -5.92601  -5.92594
 Alpha  occ. eigenvalues --   -5.92550  -5.92528  -5.92527  -5.92498  -5.92439
 Alpha  occ. eigenvalues --   -5.92392  -5.92365  -5.92364  -5.92303  -5.92163
 Alpha  occ. eigenvalues --   -5.92097  -5.92042  -2.57822  -2.57460  -2.56489
 Alpha  occ. eigenvalues --   -2.56051  -2.55781  -2.55746  -2.55688  -2.55558
 Alpha  occ. eigenvalues --   -2.55328  -2.55310  -1.60612  -1.60266  -1.60154
 Alpha  occ. eigenvalues --   -1.59947  -1.59802  -1.59786  -1.59592  -1.59447
 Alpha  occ. eigenvalues --   -1.59394  -1.59352  -1.59086  -1.58829  -1.58429
 Alpha  occ. eigenvalues --   -1.58270  -1.58153  -1.58001  -1.57799  -1.57783
 Alpha  occ. eigenvalues --   -1.57689  -1.57674  -1.57571  -1.57411  -1.57367
 Alpha  occ. eigenvalues --   -1.57272  -1.57088  -1.57032  -1.56945  -1.56788
 Alpha  occ. eigenvalues --   -1.56734  -1.56454  -1.20444  -0.78182  -0.76464
 Alpha  occ. eigenvalues --   -0.75881  -0.75787  -0.75169  -0.74618  -0.74197
 Alpha  occ. eigenvalues --   -0.73626  -0.73271  -0.72738  -0.72413  -0.72210
 Alpha  occ. eigenvalues --   -0.71860  -0.71491  -0.71180  -0.71037  -0.70524
 Alpha  occ. eigenvalues --   -0.69895  -0.69695  -0.69471  -0.62140  -0.51679
 Alpha  occ. eigenvalues --   -0.51650  -0.50901  -0.45407  -0.45359  -0.44774
 Alpha  occ. eigenvalues --   -0.44169  -0.42894  -0.42670  -0.42517  -0.42494
 Alpha  occ. eigenvalues --   -0.42048  -0.41792  -0.41371  -0.41297  -0.41005
 Alpha  occ. eigenvalues --   -0.40241  -0.40008  -0.39885  -0.39678  -0.39539
 Alpha  occ. eigenvalues --   -0.39216  -0.39031  -0.38918  -0.38782  -0.38702
 Alpha  occ. eigenvalues --   -0.38292  -0.38154  -0.37851  -0.37505  -0.37273
 Alpha  occ. eigenvalues --   -0.36993  -0.36907  -0.36444  -0.36252  -0.36062
 Alpha  occ. eigenvalues --   -0.35923  -0.35588  -0.35328  -0.35207  -0.35047
 Alpha  occ. eigenvalues --   -0.34737  -0.34657  -0.34121  -0.33867  -0.33670
 Alpha  occ. eigenvalues --   -0.33102  -0.32991  -0.32759  -0.32439  -0.32135
 Alpha  occ. eigenvalues --   -0.31763  -0.31693  -0.31223  -0.30869  -0.30582
 Alpha  occ. eigenvalues --   -0.30283  -0.29773  -0.29558  -0.29379  -0.29293
 Alpha  occ. eigenvalues --   -0.29123  -0.28342  -0.28173  -0.27311  -0.26939
 Alpha  occ. eigenvalues --   -0.26850  -0.26677  -0.26376  -0.25365  -0.25081
 Alpha  occ. eigenvalues --   -0.24269  -0.23380
 Alpha virt. eigenvalues --   -0.18983  -0.17108  -0.16543  -0.16254  -0.15858
 Alpha virt. eigenvalues --   -0.15805  -0.15152  -0.14828  -0.14747  -0.14353
 Alpha virt. eigenvalues --   -0.13991  -0.13657  -0.13529  -0.13183  -0.12997

 Mulliken charges:
               1
     1  Mo  -0.253400
     2  S    0.379284
     3  S    0.053688
     4  S    0.227876
     5  S    0.088648
     6  Mo  -0.228743
     7  S    0.111257
     8  S    0.310569
     9  Mo  -0.565757
    10  S    0.147049
    11  S    0.188739
    12  Mo  -0.382354
    13  Mo  -0.290297
    14  S    0.001947
    15  S    0.051391
    16  S    0.026865
    17  S    0.028406
    18  Mo   0.286699
    19  S   -0.202341
    20  S   -0.022834
    21  Mo   0.256489
    22  S   -0.185641
    23  S   -0.018902
    24  Mo  -0.145592
    25  S    0.056612
    26  S    0.295199
    27  Mo  -0.210779
    28  S    0.274729
    29  S    0.043526
    30  Mo  -0.399087
    31  C    0.246489
    32  O   -0.169734
 Sum of Mulliken charges =  -0.00000

 Dipole moment (field-independent basis, Debye):
    X=              1.6767    Y=              0.6843    Z=             -1.9610  Tot=              2.6693
 Quadrupole moment (field-independent basis, Debye-Ang):
   XX=           -518.5487   YY=           -487.2846   ZZ=           -543.5707
   XY=             13.8725   XZ=              3.5818   YZ=             -6.2240

  Exact polarizability:    1149.422      34.923     603.414      37.634    -273.404     966.743
 Approx polarizability:    3810.267     155.729    2077.657     113.836    -818.317    3230.286

                      1                      2                      3
                      A                      A                      A
 Frequencies --     32.9380                37.8486                42.7204
 Red. masses --     41.1570                25.7360                27.7771
 Frc consts  --      0.0263                 0.0217                 0.0299
 IR Inten    --      0.2646                 0.3582                 0.1906

                      4                      5                      6
                      A                      A                      A
 Frequencies --     47.0616                52.2725                56.1120
 Red. masses --     36.9187                32.1880                37.3760
 Frc consts  --      0.0482                 0.0518                 0.0693
 IR Inten    --      0.4975                 1.4510                 0.3497

                      7                      8                      9
                      A                      A                      A
 Frequencies --     58.6322                63.1054                67.2180
 Red. masses --     25.0661                30.5369                33.9266
 Frc consts  --      0.0508                 0.0716                 0.0903
 IR Inten    --      2.3953                 0.5650                 0.2014

                     10                     11                     12
                      A                      A                      A
 Frequencies --     70.4706                78.9219                84.9654
 Red. masses --     39.0112                38.3071                35.7890
 Frc consts  --      0.1141                 0.1406                 0.1522
 IR Inten    --      3.3523                 2.0390                 0.1146

                     13                     14                     15
                      A                      A                      A
 Frequencies --     86.2171                90.8802                93.0857
 Red. masses --     36.6736                40.4784                41.8646
 Frc consts  --      0.1606                 0.1970                 0.2137
 IR Inten    --      2.1034                 2.3823                 0.2822

                     16                     17                     18
                      A                      A                      A
 Frequencies --     98.7201               104.4134               106.4502
 Red. masses --     45.0694                42.1782                39.1471
 Frc consts  --      0.2588                 0.2709                 0.2614
 IR Inten    --      0.6876                 1.1993                 2.8567

                     19                     20                     21
                      A                      A                      A
 Frequencies --    114.8452               120.0466               124.0903
 Red. masses --     48.3178                43.0844                50.6746
 Frc consts  --      0.3755                 0.3658                 0.4597
 IR Inten    --      2.3860                 1.0533                 0.5198

                     22                     23                     24
                      A                      A                      A
 Frequencies --    129.5904               137.4205               141.5961
 Red. masses --     53.9583                49.4085                46.8471
 Frc consts  --      0.5339                 0.5497                 0.5534
 IR Inten    --      0.8852                 2.4747                 0.9869

                     25                     26                     27
                      A                      A                      A
 Frequencies --    143.9608               147.5483               151.5003
 Red. masses --     47.3956                49.7970                49.9203
 Frc consts  --      0.5787                 0.6387                 0.6751
 IR Inten    --      0.9552                 0.9907                 3.8433

                     28                     29                     30
                      A                      A                      A
 Frequencies --    156.1453               158.8034               163.9617
 Red. masses --     37.9422                37.0219                47.4911
 Frc consts  --      0.5450                 0.5501                 0.7522
 IR Inten    --      1.3062                 2.3747                 2.1053

                     31                     32                     33
                      A                      A                      A
 Frequencies --    167.4577               173.8899               178.9804
 Red. masses --     52.7045                53.7985                48.1640
 Frc consts  --      0.8708                 0.9585                 0.9090
 IR Inten    --      0.2023                 3.5877                 0.2486

                     34                     35                     36
                      A                      A                      A
 Frequencies --    181.6745               186.2320               188.8863
 Red. masses --     53.0029                47.8118                48.5265
 Frc consts  --      1.0307                 0.9770                 1.0201
 IR Inten    --      1.8496                 4.6896                 0.4597

                     37                     38                     39
                      A                      A                      A
 Frequencies --    196.9005               205.4225               208.1782
 Red. masses --     45.1413                44.8719                40.2725
 Frc consts  --      1.0311                 1.1156                 1.0283
 IR Inten    --      1.9549                 0.2851                 2.3198

                     40                     41                     42
                      A                      A                      A
 Frequencies --    213.5959               220.9036               222.1718
 Red. masses --     40.9508                42.9538                36.2558
 Frc consts  --      1.1008                 1.2350                 1.0544
 IR Inten    --      0.9168                 0.4284                 2.5219

                     43                     44                     45
                      A                      A                      A
 Frequencies --    230.2369               240.0437               244.7351
 Red. masses --     38.0073                36.9681                34.8577
 Frc consts  --      1.1870                 1.2550                 1.2301
 IR Inten    --      6.8465                 0.8725                 3.1414

                     46                     47                     48
                      A                      A                      A
 Frequencies --    249.9309               252.2609               257.2762
 Red. masses --     37.2537                36.7346                38.0320
 Frc consts  --      1.3711                 1.3773                 1.4832
 IR Inten    --      7.7211                 2.2706                 1.0035

                     49                     50                     51
                      A                      A                      A
 Frequencies --    261.1709               265.9613               276.3757
 Red. masses --     37.8920                37.6819                37.1229
 Frc consts  --      1.5228                 1.5704                 1.6707
 IR Inten    --      0.2264                 0.0963                 0.2572

                     52                     53                     54
                      A                      A                      A
 Frequencies --    284.3744               287.3267               287.7794
 Red. masses --     36.0584                35.0558                38.2519
 Frc consts  --      1.7181                 1.7051                 1.8665
 IR Inten    --      8.2882                 1.0320                 1.0332

                     55                     56                     57
                      A                      A                      A
 Frequencies --    298.3989               302.8434               308.6902
 Red. masses --     38.1341                35.3553                35.6040
 Frc consts  --      2.0006                 1.9105                 1.9989
 IR Inten    --      1.7594                 1.9904                 0.2132

                     58                     59                     60
                      A                      A                      A
 Frequencies --    311.1054               312.8170               316.8640
 Red. masses --     35.3932                35.6091                34.6737
 Frc consts  --      2.0183                 2.0530                 2.0511
 IR Inten    --      1.8287                 2.4873                 8.1752

                     61                     62                     63
                      A                      A                      A
 Frequencies --    320.6812               327.0065               335.6047
 Red. masses --     29.6575                21.9982                41.6661
 Frc consts  --      1.7969                 1.3860                 2.7650
 IR Inten    --      9.2221                41.8025                 3.0720

                     64                     65                     66
                      A                      A                      A
 Frequencies --    342.9901               345.1347               355.7847
 Red. masses --     39.6703                31.9875                41.1432
 Frc consts  --      2.7497                 2.2450                 3.0685
 IR Inten    --      0.0626                 7.4792                 1.5681

                     67                     68                     69
                      A                      A                      A
 Frequencies --    366.6546               371.8695               377.5516
 Red. masses --     33.1184                22.3211                29.4990
 Frc consts  --      2.6232                 1.8186                 2.4775
 IR Inten    --      1.0552                 5.2504                 0.9475

                     70                     71                     72
                      A                      A                      A
 Frequencies --    390.8112               403.0135               408.1810
 Red. masses --     36.0203                34.5699                34.4816
 Frc consts  --      3.2414                 3.3082                 3.3849
 IR Inten    --      1.8611                 1.9907                 1.0678

                     73                     74                     75
                      A                      A                      A
 Frequencies --    411.5159               411.9445               415.3188
 Red. masses --     37.4172                33.8988                37.5051
 Frc consts  --      3.7333                 3.3893                 3.8116
 IR Inten    --      6.6285                12.6088                 8.9222

                     76                     77                     78
                      A                      A                      A
 Frequencies --    422.5086               423.4406               429.7815
 Red. masses --     37.5204                38.7492                34.4894
 Frc consts  --      3.9463                 4.0935                 3.7535
 IR Inten    --      4.4630                 9.4801                 1.9067

                     79                     80                     81
                      A                      A                      A
 Frequencies --    432.6796               437.8914               443.1559
 Red. masses --     34.2021                36.9103                24.2991
 Frc consts  --      3.7726                 4.1699                 2.8116
 IR Inten    --      4.4242                 0.5008                 3.4434

                     82                     83                     84
                      A                      A                      A
 Frequencies --    445.9908               455.6955               456.9346
 Red. masses --     14.2298                38.5858                39.6773
 Frc consts  --      1.6676                 4.7209                 4.8809
 IR Inten    --      4.8904                 1.1761                12.2078

                     85                     86                     87
                      A                      A                      A
 Frequencies --    460.0436               471.8089               475.8441
 Red. masses --     39.4932                39.2578                39.4622
 Frc consts  --      4.9246                 5.1488                 5.2645
 IR Inten    --     13.6193                 8.5171                11.2105

                     88                     89                     90
                      A                      A                      A
 Frequencies --    562.2737               565.1941              2168.2166
 Red. masses --     40.0211                39.9239                13.4125
 Frc consts  --      7.4548                 7.5141                37.1505
 IR Inten    --    246.8902               148.3363              1439.3783

 - Thermochemistry -
 -------------------
 Temperature   298.150 Kelvin.  Pressure   1.00000 Atm.
 Atom     1 has atomic number 42 and mass  97.90550

 Molecular mass:  1646.49135 amu.
 Principal axes and moments of inertia in atomic units:
                           1         2         3
     Eigenvalues --  ******************************
           X            0.75287   0.65520  -0.06240
           Y           -0.26883   0.39267   0.87951
           Z            0.60076  -0.64538   0.47177
 This molecule is an asymmetric top.
 Rotational symmetry number  1.
 Warning -- assumption of classical behavior for rotation
           may cause significant error
 Rotational temperatures (Kelvin)      0.00168     0.00167     0.00092
 Rotational constants (GHZ):           0.03505     0.03489     0.01911
 Zero-point vibrational energy     146719.3 (Joules/Mol)
                                   35.06675 (Kcal/Mol)
 Warning -- explicit consideration of  89 degrees of freedom as
           vibrations may cause significant error
 Vibrational temperatures:     47.39    54.46    61.47    67.71    75.21
          (Kelvin)             80.73    84.36    90.79    96.71   101.39
                              113.55   122.25   124.05   130.76   133.93
                              142.04   150.23   153.16   165.24   172.72
                              178.54   186.45   197.72   203.73   207.13
                              212.29   217.98   224.66   228.48   235.90
                              240.93   250.19   257.51   261.39   267.95
                              271.77   283.30   295.56   299.52   307.32
                              317.83   319.66   331.26   345.37   352.12
                              359.59   362.95   370.16   375.77   382.66
                              397.64   409.15   413.40   414.05   429.33
                              435.72   444.14   447.61   450.07   455.90
                              461.39   470.49   482.86   493.49   496.57
                              511.89   527.53   535.04   543.21   562.29
                              579.85   587.28   592.08   592.70   597.55
                              607.90   609.24   618.36   622.53   630.03
                              637.60   641.68   655.64   657.43   661.90
                              678.83   684.63   808.99   813.19  3119.58

 Zero-point correction=                           0.055882 (Hartree/Particle)
 Thermal correction to Energy=                    0.104498
 Thermal correction to Enthalpy=                  0.105442
 Thermal correction to Gibbs Free Energy=        -0.027704
 Sum of electronic and zero-point Energies=          -8753.610594
 Sum of electronic and thermal Energies=             -8753.561978
 Sum of electronic and thermal Enthalpies=           -8753.561034
 Sum of electronic and thermal Free Energies=        -8753.694180

                     E (Thermal)             CV                S
                      KCal/Mol        Cal/Mol-Kelvin    Cal/Mol-Kelvin
 Total                   65.573            158.866            280.230
 Electronic               0.000              0.000              0.000
 Translational            0.889              2.981             48.068
 Rotational               0.889              2.981             40.750
 Vibrational             63.796            152.904            191.412
 Vibration     1          0.594              1.983              5.644
 Vibration     2          0.594              1.982              5.369
 Vibration     3          0.595              1.980              5.129
 Vibration     4          0.595              1.979              4.937
 Vibration     5          0.596              1.977              4.730
 Vibration     6          0.596              1.975              4.589
 Vibration     7          0.596              1.974              4.503
 Vibration     8          0.597              1.972              4.358
 Vibration     9          0.598              1.970              4.233
 Vibration    10          0.598              1.968              4.140
 Vibration    11          0.600              1.963              3.918
 Vibration    12          0.601              1.960              3.773
 Vibration    13          0.601              1.959              3.744
 Vibration    14          0.602              1.956              3.641
 Vibration    15          0.602              1.954              3.594
 Vibration    16          0.604              1.950              3.479
 Vibration    17          0.605              1.946              3.370
 Vibration    18          0.605              1.944              3.333
 Vibration    19          0.608              1.937              3.185
 Vibration    20          0.609              1.933              3.100
 Vibration    21          0.610              1.929              3.036
 Vibration    22          0.612              1.924              2.952
 Vibration    23          0.614              1.916              2.839
 Vibration    24          0.615              1.912              2.782
 Vibration    25          0.616              1.909              2.751
 Vibration    26          0.617              1.905              2.704
 Vibration    27          0.619              1.901              2.653
 Vibration    28          0.620              1.896              2.596
 Vibration    29          0.621              1.893              2.564
 Vibration    30          0.623              1.887              2.504
 Vibration    31          0.624              1.883              2.464
 Vibration    32          0.627              1.875              2.393
 Vibration    33          0.629              1.868              2.339
 Vibration    34          0.630              1.865              2.311
 Vibration    35          0.632              1.859              2.265
 Vibration    36          0.633              1.855              2.239
 Vibration    37          0.636              1.844              2.162
 Vibration    38          0.640              1.832              2.084
 Vibration    39          0.641              1.828              2.060
 Vibration    40          0.644              1.820              2.013
 Vibration    41          0.648              1.809              1.952
 Vibration    42          0.648              1.807              1.941
 Vibration    43          0.652              1.795              1.877
 Vibration    44          0.657              1.779              1.803
 Vibration    45          0.660              1.771              1.768
 Vibration    46          0.663              1.763              1.731
 Vibration    47          0.664              1.759              1.715
 Vibration    48          0.667              1.750              1.680
 Vibration    49          0.669              1.744              1.654
 Vibration    50          0.672              1.736              1.622
 Vibration    51          0.678              1.717              1.556
 Vibration    52          0.683              1.703              1.507
 Vibration    53          0.684              1.697              1.490
 Vibration    54          0.685              1.696              1.487
 Vibration    55          0.691              1.677              1.426
 Vibration    56          0.694              1.668              1.401
 Vibration    57          0.698              1.657              1.369
 Vibration    58          0.700              1.653              1.356
 Vibration    59          0.701              1.649              1.347
 Vibration    60          0.704              1.641              1.326
 Vibration    61          0.706              1.634              1.307
 Vibration    62          0.711              1.622              1.275
 Vibration    63          0.717              1.604              1.233
 Vibration    64          0.722              1.590              1.198
 Vibration    65          0.724              1.585              1.188
 Vibration    66          0.731              1.563              1.140
 Vibration    67          0.740              1.541              1.094
 Vibration    68          0.744              1.530              1.072
 Vibration    69          0.748              1.518              1.049
 Vibration    70          0.758              1.490              0.997
 Vibration    71          0.768              1.464              0.952
 Vibration    72          0.773              1.452              0.933
 Vibration    73          0.775              1.445              0.921
 Vibration    74          0.776              1.444              0.920
 Vibration    75          0.779              1.437              0.908
 Vibration    76          0.785              1.421              0.883
 Vibration    77          0.786              1.419              0.880
 Vibration    78          0.791              1.405              0.859
 Vibration    79          0.794              1.399              0.850
 Vibration    80          0.798              1.388              0.833
 Vibration    81          0.803              1.376              0.817
 Vibration    82          0.805              1.370              0.808
 Vibration    83          0.814              1.348              0.779
 Vibration    84          0.815              1.346              0.775
 Vibration    85          0.818              1.339              0.766
 Vibration    86          0.829              1.313              0.732
 Vibration    87          0.832              1.304              0.721
 Vibration    88          0.918              1.113              0.519
 Vibration    89          0.921              1.107              0.514

                           ! Non-Optimized Parameters !
 Normal termination of Gaussian 16 at Mon Dec 12 09:43:05 2022.
