 Gaussian 16, Revision C.01,
 Gaussian 16:  ES64L-G16RevC.01  3-Jul-2019

 ---------------------------------------
 # opt freq b3lyp/gen nosymm pseudo=read
 ---------------------------------------

 -------------------
 Title Card Required
 -------------------
 Symbolic Z-matrix:
 Charge =  0 Multiplicity = 1

 SCF Done:  E(RB3LYP) =  -8640.30518977     A.U. after   37 cycles
 SCF Done:  E(RB3LYP) =  -8640.31523166     A.U. after   24 cycles
 SCF Done:  E(RB3LYP) =  -8640.32112001     A.U. after   24 cycles
 SCF Done:  E(RB3LYP) =  -8640.32185383     A.U. after   21 cycles
 SCF Done:  E(RB3LYP) =  -8640.32230506     A.U. after   22 cycles
 SCF Done:  E(RB3LYP) =  -8640.32241838     A.U. after   20 cycles
 SCF Done:  E(RB3LYP) =  -8640.32248983     A.U. after   20 cycles
 SCF Done:  E(RB3LYP) =  -8640.32251881     A.U. after   19 cycles
 SCF Done:  E(RB3LYP) =  -8640.32253475     A.U. after   18 cycles
 SCF Done:  E(RB3LYP) =  -8640.32254128     A.U. after   18 cycles
 SCF Done:  E(RB3LYP) =  -8640.32254536     A.U. after   18 cycles
 SCF Done:  E(RB3LYP) =  -8640.32254699     A.U. after   17 cycles
 SCF Done:  E(RB3LYP) =  -8640.32254863     A.U. after   18 cycles
 SCF Done:  E(RB3LYP) =  -8640.32254955     A.U. after   16 cycles
 SCF Done:  E(RB3LYP) =  -8640.32255006     A.U. after   16 cycles
 SCF Done:  E(RB3LYP) =  -8640.32255045     A.U. after   15 cycles
 SCF Done:  E(RB3LYP) =  -8640.32255067     A.U. after   15 cycles
 Optimization completed.
    -- Stationary point found.
 Normal termination of Gaussian 16 at Mon Dec 12 09:32:59 2022.

 ------------------------------------------------------------------
 #N Geom=AllCheck Guess=TCheck SCRF=Check GenChk RB3LYP/ChkBas Freq
 ------------------------------------------------------------------

 Structure from the checkpoint file:  "/home/chesagar/scratch/Gau-10009.chk"
 -------------------
 Title Card Required
 -------------------
 Charge =  0 Multiplicity = 1

                          Input orientation:
 ---------------------------------------------------------------------
 Center     Atomic      Atomic             Coordinates (Angstroms)
 Number     Number       Type             X           Y           Z
 ---------------------------------------------------------------------
      1         42           0        0.340635    2.187673   12.260085
      2         16           0        1.247838    4.238200   11.615185
      3         16           0       -1.606197    2.919721   13.277626
      4         16           0       -0.443270    0.990420   10.312914
      5         16           0        2.329382    0.544809   11.592565
      6         42           0       -2.091286    2.633691   10.977647
      7         16           0       -3.211448    1.515791    9.015311
      8         16           0       -1.382983    4.743943   10.202391
      9         42           0        0.469317    3.043666    9.555450
     10         16           0       -0.580897    2.539032    7.317701
     11         16           0        2.385836    1.934628    8.579039
     12         42           0        2.881215    2.815824   10.770382
     13         42           0       -2.363832    3.761751    8.386815
     14         16           0        4.308835    3.210165   12.877403
     15         16           0        4.425418    4.440780    9.949594
     16         16           0       -4.565656    4.792966    8.427485
     17         16           0       -1.993260    5.627255    6.825942
     18         42           0       -4.873232    2.940521    9.700260
     19         16           0       -6.804806    2.116478    9.398262
     20         16           0       -4.385311    3.427826   11.812306
     21         42           0        3.074625    1.489642   13.545755
     22         16           0        4.196951    0.147193   14.738311
     23         16           0        1.226720    2.231382   14.591944
     24         42           0        0.116223    4.812926    6.950782
     25         16           0        0.563366    6.440620    5.066980
     26         16           0        1.464816    6.109667    8.503215
     27         42           0        2.966881    4.225181    8.175085
     28         16           0        2.129210    3.796203    5.845990
     29         16           0        4.583352    5.652321    6.888440
     30         42           0        2.423296    6.100919    6.328126
 ---------------------------------------------------------------------

 SCF Done:  E(RB3LYP) =  -8640.32255067     A.U. after    2 cycles

 Alpha  occ. eigenvalues --  -88.94480 -88.94291 -88.93083 -88.93068 -88.92591
 Alpha  occ. eigenvalues --  -88.92542 -88.91533 -88.91335 -88.90457 -88.90144
 Alpha  occ. eigenvalues --  -88.90050 -88.89990 -88.89804 -88.89709 -88.89682
 Alpha  occ. eigenvalues --  -88.89398 -88.88918 -88.88580 -88.88550 -88.88400
 Alpha  occ. eigenvalues --   -8.01806  -8.01616  -8.00456  -8.00439  -8.00090
 Alpha  occ. eigenvalues --   -8.00065  -7.99009  -7.98796  -7.97912  -7.97754
 Alpha  occ. eigenvalues --   -7.97723  -7.97715  -7.97550  -7.97423  -7.97320
 Alpha  occ. eigenvalues --   -7.97021  -7.96810  -7.96426  -7.96268  -7.96093
 Alpha  occ. eigenvalues --   -5.97852  -5.97773  -5.97716  -5.97648  -5.97605
 Alpha  occ. eigenvalues --   -5.97520  -5.96526  -5.96465  -5.96432  -5.96425
 Alpha  occ. eigenvalues --   -5.96352  -5.96330  -5.96136  -5.96085  -5.96074
 Alpha  occ. eigenvalues --   -5.96062  -5.95952  -5.95937  -5.95040  -5.95001
 Alpha  occ. eigenvalues --   -5.94887  -5.94814  -5.94811  -5.94668  -5.93997
 Alpha  occ. eigenvalues --   -5.93883  -5.93848  -5.93813  -5.93807  -5.93756
 Alpha  occ. eigenvalues --   -5.93701  -5.93673  -5.93654  -5.93636  -5.93563
 Alpha  occ. eigenvalues --   -5.93560  -5.93530  -5.93526  -5.93489  -5.93402
 Alpha  occ. eigenvalues --   -5.93375  -5.93367  -5.93260  -5.93213  -5.93162
 Alpha  occ. eigenvalues --   -5.93158  -5.92905  -5.92869  -5.92793  -5.92750
 Alpha  occ. eigenvalues --   -5.92697  -5.92431  -5.92361  -5.92325  -5.92301
 Alpha  occ. eigenvalues --   -5.92228  -5.92127  -5.92111  -5.92064  -5.91951
 Alpha  occ. eigenvalues --   -2.57997  -2.57707  -2.56748  -2.56360  -2.56190
 Alpha  occ. eigenvalues --   -2.55960  -2.55907  -2.55709  -2.55597  -2.55462
 Alpha  occ. eigenvalues --   -1.60800  -1.60538  -1.60338  -1.60212  -1.60061
 Alpha  occ. eigenvalues --   -1.59975  -1.59925  -1.59727  -1.59702  -1.59613
 Alpha  occ. eigenvalues --   -1.59423  -1.59107  -1.58732  -1.58590  -1.58482
 Alpha  occ. eigenvalues --   -1.58226  -1.58144  -1.58070  -1.58029  -1.57885
 Alpha  occ. eigenvalues --   -1.57808  -1.57670  -1.57539  -1.57462  -1.57283
 Alpha  occ. eigenvalues --   -1.57237  -1.57149  -1.57004  -1.56847  -1.56418
 Alpha  occ. eigenvalues --   -0.78458  -0.76757  -0.76156  -0.75908  -0.75451
 Alpha  occ. eigenvalues --   -0.74822  -0.74466  -0.73830  -0.73440  -0.73000
 Alpha  occ. eigenvalues --   -0.72664  -0.72471  -0.72157  -0.71464  -0.71418
 Alpha  occ. eigenvalues --   -0.71268  -0.70880  -0.70074  -0.69746  -0.69448
 Alpha  occ. eigenvalues --   -0.45724  -0.45652  -0.45034  -0.44433  -0.43186
 Alpha  occ. eigenvalues --   -0.43056  -0.42941  -0.42755  -0.42340  -0.42109
 Alpha  occ. eigenvalues --   -0.41714  -0.41526  -0.41228  -0.40721  -0.40333
 Alpha  occ. eigenvalues --   -0.40161  -0.39898  -0.39816  -0.39436  -0.39221
 Alpha  occ. eigenvalues --   -0.39183  -0.39051  -0.38935  -0.38529  -0.38364
 Alpha  occ. eigenvalues --   -0.38179  -0.37866  -0.37533  -0.37187  -0.37108
 Alpha  occ. eigenvalues --   -0.36792  -0.36433  -0.36298  -0.36043  -0.35739
 Alpha  occ. eigenvalues --   -0.35624  -0.35561  -0.35320  -0.34938  -0.34820
 Alpha  occ. eigenvalues --   -0.34378  -0.34056  -0.33927  -0.33280  -0.33195
 Alpha  occ. eigenvalues --   -0.33008  -0.32780  -0.32401  -0.32043  -0.31794
 Alpha  occ. eigenvalues --   -0.31447  -0.31003  -0.30702  -0.30433  -0.29927
 Alpha  occ. eigenvalues --   -0.29748  -0.29606  -0.29504  -0.29288  -0.28577
 Alpha  occ. eigenvalues --   -0.28317  -0.27533  -0.27263  -0.26999  -0.26735
 Alpha  occ. eigenvalues --   -0.26615  -0.25801  -0.25461  -0.24655  -0.24108
 Alpha virt. eigenvalues --   -0.19229  -0.17322  -0.16587  -0.16317  -0.16049
 Alpha virt. eigenvalues --   -0.15809  -0.15133  -0.14909  -0.14675  -0.14465
 Alpha virt. eigenvalues --   -0.14408  -0.13964  -0.13765  -0.13423  -0.13216

 Mulliken charges:
               1
     1  Mo  -0.261137
     2  S    0.379090
     3  S    0.056748
     4  S    0.228254
     5  S    0.090928
     6  Mo  -0.243116
     7  S    0.117097
     8  S    0.318800
     9  Mo  -0.551445
    10  S    0.145689
    11  S    0.193543
    12  Mo  -0.402589
    13  Mo  -0.312183
    14  S    0.005013
    15  S    0.043031
    16  S    0.029646
    17  S    0.028491
    18  Mo   0.283875
    19  S   -0.200769
    20  S   -0.019867
    21  Mo   0.261314
    22  S   -0.184066
    23  S   -0.019875
    24  Mo  -0.103668
    25  S   -0.001607
    26  S    0.209947
    27  Mo  -0.169251
    28  S    0.224453
    29  S   -0.011275
    30  Mo  -0.135072
 Sum of Mulliken charges =  -0.00000

 Dipole moment (field-independent basis, Debye):
    X=              0.6533    Y=             -0.1355    Z=             -0.5480  Tot=              0.8634
 Quadrupole moment (field-independent basis, Debye-Ang):
   XX=           -508.2457   YY=           -484.4043   ZZ=           -512.6475
   XY=              6.8453   XZ=              0.2037   YZ=             -4.8563

  Exact polarizability:    1129.614      22.104     592.528      75.427    -246.004     894.294
 Approx polarizability:    3730.676     107.353    2058.736     220.453    -768.641    3094.213

                      1                      2                      3
                      A                      A                      A
 Frequencies --     33.7927                41.2816                48.7081
 Red. masses --     41.6427                39.4299                41.9484
 Frc consts  --      0.0280                 0.0396                 0.0586
 IR Inten    --      0.1767                 0.2480                 0.7111

                      4                      5                      6
                      A                      A                      A
 Frequencies --     51.4870                60.9173                61.1159
 Red. masses --     40.0970                41.8264                41.2848
 Frc consts  --      0.0626                 0.0914                 0.0909
 IR Inten    --      0.1441                 0.3606                 0.5087

                      7                      8                      9
                      A                      A                      A
 Frequencies --     70.6939                76.2119                81.6818
 Red. masses --     44.4411                35.2884                41.6824
 Frc consts  --      0.1309                 0.1208                 0.1639
 IR Inten    --      1.1889                 2.5986                 1.0260

                     10                     11                     12
                      A                      A                      A
 Frequencies --     81.8357                87.7064                92.1707
 Red. masses --     37.0151                36.6944                43.8169
 Frc consts  --      0.1461                 0.1663                 0.2193
 IR Inten    --      2.0172                 1.5912                 2.3380

                     13                     14                     15
                      A                      A                      A
 Frequencies --     96.0780               103.0166               105.2061
 Red. masses --     45.9294                46.9737                44.7812
 Frc consts  --      0.2498                 0.2937                 0.2920
 IR Inten    --      1.6370                 0.3566                 2.3771

                     16                     17                     18
                      A                      A                      A
 Frequencies --    107.3866               114.4270               121.9970
 Red. masses --     42.6191                51.1578                44.8394
 Frc consts  --      0.2896                 0.3947                 0.3932
 IR Inten    --      2.7000                 1.8482                 0.4374

                     19                     20                     21
                      A                      A                      A
 Frequencies --    126.3445               131.3899               135.9682
 Red. masses --     50.7150                52.8185                48.6481
 Frc consts  --      0.4770                 0.5372                 0.5299
 IR Inten    --      0.9739                 1.3386                 2.2832

                     22                     23                     24
                      A                      A                      A
 Frequencies --    141.9506               146.4900               149.0911
 Red. masses --     45.9345                47.9319                48.6815
 Frc consts  --      0.5453                 0.6060                 0.6376
 IR Inten    --      0.4262                 1.0539                 0.2436

                     25                     26                     27
                      A                      A                      A
 Frequencies --    153.0721               155.9434               159.8302
 Red. masses --     50.2142                37.1526                37.5051
 Frc consts  --      0.6932                 0.5323                 0.5645
 IR Inten    --      4.1722                 0.8047                 2.8150

                     28                     29                     30
                      A                      A                      A
 Frequencies --    165.4878               169.6740               175.3347
 Red. masses --     47.2889                52.7146                53.9773
 Frc consts  --      0.7630                 0.8942                 0.9777
 IR Inten    --      2.3673                 0.0729                 3.4489

                     31                     32                     33
                      A                      A                      A
 Frequencies --    179.7829               185.9426               187.7251
 Red. masses --     49.3829                53.2201                48.0866
 Frc consts  --      0.9404                 1.0841                 0.9984
 IR Inten    --      0.3203                 1.3711                 3.1487

                     34                     35                     36
                      A                      A                      A
 Frequencies --    190.8886               200.4304               202.2052
 Red. masses --     49.7729                37.1753                40.5033
 Frc consts  --      1.0686                 0.8799                 0.9757
 IR Inten    --      1.3575                 3.6473                 4.0638

                     37                     38                     39
                      A                      A                      A
 Frequencies --    207.1099               210.1362               213.7002
 Red. masses --     43.8457                48.0827                37.5272
 Frc consts  --      1.1081                 1.2510                 1.0097
 IR Inten    --      0.3932                 2.2895                 3.3727

                     40                     41                     42
                      A                      A                      A
 Frequencies --    218.8364               229.4777               235.6068
 Red. masses --     42.3762                36.7184                42.0618
 Frc consts  --      1.1957                 1.1392                 1.3757
 IR Inten    --      1.4488                 0.5451                 0.5608

                     43                     44                     45
                      A                      A                      A
 Frequencies --    244.7768               247.3244               253.6394
 Red. masses --     35.8063                42.7870                36.9680
 Frc consts  --      1.2640                 1.5420                 1.4012
 IR Inten    --      6.9859                 3.2802                 0.7277

                     46                     47                     48
                      A                      A                      A
 Frequencies --    261.1995               268.0791               276.6237
 Red. masses --     39.2577                39.5314                37.6377
 Frc consts  --      1.5780                 1.6739                 1.6969
 IR Inten    --      0.2209                 1.0619                 0.1620

                     49                     50                     51
                      A                      A                      A
 Frequencies --    276.6467               283.9393               285.8508
 Red. masses --     39.0902                39.4491                35.7646
 Frc consts  --      1.7627                 1.8739                 1.7218
 IR Inten    --      0.3399                 6.9521                 5.9050

                     52                     53                     54
                      A                      A                      A
 Frequencies --    287.6965               299.0198               299.8219
 Red. masses --     35.1319                39.9803                37.2539
 Frc consts  --      1.7133                 2.1062                 1.9731
 IR Inten    --      1.5602                 0.7056                 2.3294

                     55                     56                     57
                      A                      A                      A
 Frequencies --    304.8525               307.8843               311.3273
 Red. masses --     35.2851                36.0271                36.9832
 Frc consts  --      1.9321                 2.0121                 2.1120
 IR Inten    --      0.8420                 0.2399                 1.4510

                     58                     59                     60
                      A                      A                      A
 Frequencies --    318.5077               320.8404               334.9960
 Red. masses --     36.8864                41.8075                42.2070
 Frc consts  --      2.2047                 2.5356                 2.7907
 IR Inten    --      0.2783                 1.1139                 1.3196

                     61                     62                     63
                      A                      A                      A
 Frequencies --    339.5711               345.4897               356.6117
 Red. masses --     38.7416                38.9792                41.2158
 Frc consts  --      2.6320                 2.7413                 3.0882
 IR Inten    --      0.1215                 0.0828                 1.8749

                     64                     65                     66
                      A                      A                      A
 Frequencies --    368.1251               389.2675               397.5580
 Red. masses --     39.7613                36.1015                35.9117
 Frc consts  --      3.1747                 3.2231                 3.3442
 IR Inten    --      0.6826                 0.6589                 2.5629

                     67                     68                     69
                      A                      A                      A
 Frequencies --    407.7477               411.1550               420.3960
 Red. masses --     34.9741                35.8584                37.7064
 Frc consts  --      3.4259                 3.5715                 3.9263
 IR Inten    --      1.9646                 4.0716                 3.9839

                     70                     71                     72
                      A                      A                      A
 Frequencies --    422.4578               423.5417               425.9227
 Red. masses --     37.3964                36.6977                36.9762
 Frc consts  --      3.9323                 3.8787                 3.9522
 IR Inten    --      0.7374                 4.6481                12.6781

                     73                     74                     75
                      A                      A                      A
 Frequencies --    430.0839               432.2797               436.3126
 Red. masses --     34.7277                34.2391                38.0090
 Frc consts  --      3.7847                 3.7697                 4.2632
 IR Inten    --      0.1897                 5.6971                 3.2924

                     76                     77                     78
                      A                      A                      A
 Frequencies --    438.3848               454.8440               456.8020
 Red. masses --     37.8811                39.1643                39.8247
 Frc consts  --      4.2893                 4.7738                 4.8962
 IR Inten    --      0.1233                 1.8573                 5.2582

                     79                     80                     81
                      A                      A                      A
 Frequencies --    458.0744               460.0829               470.8711
 Red. masses --     42.3769                39.4993                39.3049
 Frc consts  --      5.2390                 4.9262                 5.1345
 IR Inten    --     33.6183                13.6330                 8.3402

                     82                     83                     84
                      A                      A                      A
 Frequencies --    475.9647               562.6973               565.7380
 Red. masses --     39.5386                40.0213                39.9100
 Frc consts  --      5.2774                 7.4661                 7.5260
 IR Inten    --     11.2412               243.6729               144.3698

 - Thermochemistry -
 -------------------
 Temperature   298.150 Kelvin.  Pressure   1.00000 Atm.
 Atom     1 has atomic number 42 and mass  97.90550

 Molecular mass:  1618.49644 amu.
 Principal axes and moments of inertia in atomic units:
                           1         2         3
     Eigenvalues --  ******************************
           X            0.91235  -0.40291  -0.07263
           Y           -0.13866  -0.47103   0.87115
           Z            0.38521   0.78472   0.48561
 This molecule is an asymmetric top.
 Rotational symmetry number  1.
 Warning -- assumption of classical behavior for rotation
           may cause significant error
 Rotational temperatures (Kelvin)      0.00191     0.00167     0.00098
 Rotational constants (GHZ):           0.03973     0.03484     0.02042
 Zero-point vibrational energy     127050.2 (Joules/Mol)
                                   30.36573 (Kcal/Mol)
 Warning -- explicit consideration of  84 degrees of freedom as
           vibrations may cause significant error
 Vibrational temperatures:     48.62    59.39    70.08    74.08    87.65
          (Kelvin)             87.93   101.71   109.65   117.52   117.74
                              126.19   132.61   138.23   148.22   151.37
                              154.51   164.63   175.53   181.78   189.04
                              195.63   204.24   210.77   214.51   220.24
                              224.37   229.96   238.10   244.12   252.27
                              258.67   267.53   270.09   274.65   288.37
                              290.93   297.98   302.34   307.47   314.86
                              330.17   338.99   352.18   355.84   364.93
                              375.81   385.71   398.00   398.03   408.53
                              411.28   413.93   430.22   431.38   438.61
                              442.98   447.93   458.26   461.62   481.98
                              488.57   497.08   513.08   529.65   560.07
                              572.00   586.66   591.56   604.86   607.82
                              609.38   612.81   618.79   621.95   627.76
                              630.74   654.42   657.24   659.07   661.96
                              677.48   684.81   809.60   813.97

 Zero-point correction=                           0.048391 (Hartree/Particle)
 Thermal correction to Energy=                    0.094186
 Thermal correction to Enthalpy=                  0.095131
 Thermal correction to Gibbs Free Energy=        -0.031193
 Sum of electronic and zero-point Energies=          -8640.274160
 Sum of electronic and thermal Energies=             -8640.228364
 Sum of electronic and thermal Enthalpies=           -8640.227420
 Sum of electronic and thermal Free Energies=        -8640.353744

                     E (Thermal)             CV                S
                      KCal/Mol        Cal/Mol-Kelvin    Cal/Mol-Kelvin
 Total                   59.103            150.173            265.870
 Electronic               0.000              0.000              0.000
 Translational            0.889              2.981             48.017
 Rotational               0.889              2.981             40.561
 Vibrational             57.325            144.212            177.293
 Vibration     1          0.594              1.983              5.593
 Vibration     2          0.594              1.981              5.197
 Vibration     3          0.595              1.978              4.869
 Vibration     4          0.596              1.977              4.759
 Vibration     5          0.597              1.973              4.427
 Vibration     6          0.597              1.973              4.421
 Vibration     7          0.598              1.968              4.134
 Vibration     8          0.599              1.965              3.986
 Vibration     9          0.600              1.962              3.850
 Vibration    10          0.600              1.962              3.846
 Vibration    11          0.601              1.958              3.711
 Vibration    12          0.602              1.955              3.613
 Vibration    13          0.603              1.952              3.532
 Vibration    14          0.605              1.947              3.396
 Vibration    15          0.605              1.945              3.355
 Vibration    16          0.606              1.943              3.316
 Vibration    17          0.607              1.937              3.192
 Vibration    18          0.609              1.931              3.068
 Vibration    19          0.611              1.927              3.001
 Vibration    20          0.612              1.922              2.926
 Vibration    21          0.614              1.917              2.860
 Vibration    22          0.615              1.911              2.777
 Vibration    23          0.617              1.906              2.717
 Vibration    24          0.618              1.904              2.684
 Vibration    25          0.619              1.899              2.634
 Vibration    26          0.620              1.896              2.598
 Vibration    27          0.622              1.892              2.552
 Vibration    28          0.624              1.885              2.486
 Vibration    29          0.625              1.880              2.439
 Vibration    30          0.627              1.873              2.378
 Vibration    31          0.629              1.867              2.331
 Vibration    32          0.632              1.859              2.268
 Vibration    33          0.632              1.857              2.250
 Vibration    34          0.634              1.852              2.219
 Vibration    35          0.638              1.839              2.129
 Vibration    36          0.639              1.837              2.113
 Vibration    37          0.641              1.830              2.069
 Vibration    38          0.642              1.825              2.042
 Vibration    39          0.644              1.820              2.012
 Vibration    40          0.647              1.812              1.969
 Vibration    41          0.652              1.796              1.883
 Vibration    42          0.655              1.786              1.836
 Vibration    43          0.660              1.771              1.768
 Vibration    44          0.661              1.767              1.750
 Vibration    45          0.665              1.757              1.705
 Vibration    46          0.669              1.744              1.654
 Vibration    47          0.673              1.732              1.609
 Vibration    48          0.678              1.717              1.554
 Vibration    49          0.678              1.717              1.554
 Vibration    50          0.682              1.703              1.510
 Vibration    51          0.684              1.700              1.498
 Vibration    52          0.685              1.697              1.487
 Vibration    53          0.692              1.676              1.422
 Vibration    54          0.692              1.674              1.418
 Vibration    55          0.696              1.664              1.390
 Vibration    56          0.698              1.659              1.374
 Vibration    57          0.700              1.652              1.355
 Vibration    58          0.705              1.638              1.318
 Vibration    59          0.706              1.634              1.306
 Vibration    60          0.716              1.606              1.236
 Vibration    61          0.719              1.596              1.214
 Vibration    62          0.724              1.584              1.187
 Vibration    63          0.732              1.562              1.137
 Vibration    64          0.741              1.538              1.088
 Vibration    65          0.757              1.493              1.003
 Vibration    66          0.764              1.475              0.972
 Vibration    67          0.772              1.453              0.935
 Vibration    68          0.775              1.446              0.923
 Vibration    69          0.783              1.426              0.891
 Vibration    70          0.785              1.421              0.884
 Vibration    71          0.786              1.419              0.880
 Vibration    72          0.788              1.414              0.872
 Vibration    73          0.791              1.405              0.858
 Vibration    74          0.793              1.400              0.851
 Vibration    75          0.797              1.391              0.838
 Vibration    76          0.799              1.386              0.832
 Vibration    77          0.813              1.350              0.781
 Vibration    78          0.815              1.346              0.775
 Vibration    79          0.816              1.343              0.772
 Vibration    80          0.818              1.339              0.766
 Vibration    81          0.828              1.315              0.735
 Vibration    82          0.833              1.303              0.721
 Vibration    83          0.918              1.112              0.518
 Vibration    84          0.922              1.105              0.512

                           ! Non-Optimized Parameters !
 Normal termination of Gaussian 16 at Mon Dec 12 09:47:06 2022.
