 Gaussian 16, Revision C.01,
 Gaussian 16:  ES64L-G16RevC.01  3-Jul-2019

 ---------------------------------------
 # opt freq b3lyp/gen nosymm pseudo=read
 ---------------------------------------

 -------------------
 Title Card Required
 -------------------
 Symbolic Z-matrix:
 Charge =  0 Multiplicity = 1

 SCF Done:  E(RB3LYP) =  -9039.73476495     A.U. after   36 cycles
 SCF Done:  E(RB3LYP) =  -9039.73629257     A.U. after   20 cycles
 SCF Done:  E(RB3LYP) =  -9039.73792991     A.U. after   23 cycles
 SCF Done:  E(RB3LYP) =  -9039.73877685     A.U. after   23 cycles
 SCF Done:  E(RB3LYP) =  -9039.73937919     A.U. after   23 cycles
 SCF Done:  E(RB3LYP) =  -9039.73991874     A.U. after   24 cycles
 SCF Done:  E(RB3LYP) =  -9039.74050274     A.U. after   24 cycles
 SCF Done:  E(RB3LYP) =  -9039.74092262     A.U. after   24 cycles
 SCF Done:  E(RB3LYP) =  -9039.74104936     A.U. after   25 cycles
 SCF Done:  E(RB3LYP) =  -9039.74098198     A.U. after   25 cycles
 SCF Done:  E(RB3LYP) =  -9039.74235859     A.U. after   20 cycles
 SCF Done:  E(RB3LYP) =  -9039.74240727     A.U. after   21 cycles
 SCF Done:  E(RB3LYP) =  -9039.74240037     A.U. after   19 cycles
 SCF Done:  E(RB3LYP) =  -9039.74241326     A.U. after   19 cycles
 SCF Done:  E(RB3LYP) =  -9039.74241593     A.U. after   18 cycles
 SCF Done:  E(RB3LYP) =  -9039.74241733     A.U. after   16 cycles
 SCF Done:  E(RB3LYP) =  -9039.74241846     A.U. after   17 cycles
 SCF Done:  E(RB3LYP) =  -9039.74241873     A.U. after   14 cycles
 SCF Done:  E(RB3LYP) =  -9039.74241897     A.U. after   14 cycles
 Optimization completed.
    -- Stationary point found.
 Normal termination of Gaussian 16 at Tue Dec 13 12:29:42 2022.

 ------------------------------------------------------------------
 #N Geom=AllCheck Guess=TCheck SCRF=Check GenChk RB3LYP/ChkBas Freq
 ------------------------------------------------------------------

 Structure from the checkpoint file:  "/localscratch/chegho/Gau-11567.chk"
 -------------------
 Title Card Required
 -------------------
 Charge =  0 Multiplicity = 1

                          Input orientation:
 ---------------------------------------------------------------------
 Center     Atomic      Atomic             Coordinates (Angstroms)
 Number     Number       Type             X           Y           Z
 ---------------------------------------------------------------------
      1         42           0        0.414418    2.377179   12.259720
      2         16           0        1.456321    4.259848   11.358065
      3         16           0       -1.431202    3.385234   13.222671
      4         16           0       -0.524042    1.028886   10.489992
      5         16           0        2.264142    0.517898   11.731435
      6         42           0       -2.018177    2.866681   10.985188
      7         16           0       -3.287556    1.625164    9.200787
      8         16           0       -1.174399    4.810397    9.945488
      9         42           0        0.518584    2.903016    9.480115
     10         16           0       -0.644278    2.235422    7.335089
     11         16           0        2.304252    1.539629    8.578976
     12         42           0        2.951459    2.631881   10.632373
     13         42           0       -2.299413    3.709847    8.288110
     14         16           0        4.469659    3.157644   12.652745
     15         16           0        4.574745    4.025771    9.592205
     16         16           0       -4.408042    4.914133    8.261280
     17         16           0       -1.840697    5.335655    6.499073
     18         42           0       -4.810993    3.250067    9.750903
     19         16           0       -6.808477    2.548191    9.592117
     20         16           0       -4.216429    3.936273   11.778076
     21         42           0        3.139120    1.619956   13.541984
     22         16           0        4.201231    0.338084   14.852335
     23         16           0        1.382622    2.607464   14.545342
     24         42           0        0.216786    4.383550    6.667027
     25         16           0        0.678106    5.645816    4.580166
     26         16           0        1.703922    5.744280    8.026473
     27         42           0        3.036338    3.712569    7.882234
     28         16           0        2.102211    3.086455    5.662283
     29         16           0        4.723917    4.757628    6.407115
     30         42           0        2.595033    5.430279    5.837750
     31         16           0        3.511065    7.734226    4.896257
     32          1           0        2.508069    8.576770    5.215283
     33          1           0        4.310489    8.138037    5.903887
 ---------------------------------------------------------------------

 SCF Done:  E(RB3LYP) =  -9039.74241897     A.U. after    3 cycles

 Alpha  occ. eigenvalues --  -88.95737 -88.93727 -88.93608 -88.92408 -88.92391
 Alpha  occ. eigenvalues --  -88.91944 -88.91856 -88.90812 -88.90601 -88.89534
 Alpha  occ. eigenvalues --  -88.89407 -88.89373 -88.89322 -88.89178 -88.89070
 Alpha  occ. eigenvalues --  -88.88878 -88.88497 -88.88318 -88.87963 -88.87852
 Alpha  occ. eigenvalues --  -88.87757  -8.03429  -8.01061  -8.00941  -7.99769
 Alpha  occ. eigenvalues --   -7.99734  -7.99442  -7.99379  -7.98286  -7.98056
 Alpha  occ. eigenvalues --   -7.97108  -7.97079  -7.97056  -7.96926  -7.96847
 Alpha  occ. eigenvalues --   -7.96785  -7.96506  -7.96212  -7.96113  -7.95729
 Alpha  occ. eigenvalues --   -7.95610  -7.95411  -5.99738  -5.99450  -5.98971
 Alpha  occ. eigenvalues --   -5.97101  -5.97031  -5.96974  -5.96971  -5.96932
 Alpha  occ. eigenvalues --   -5.96845  -5.95838  -5.95772  -5.95743  -5.95724
 Alpha  occ. eigenvalues --   -5.95648  -5.95646  -5.95490  -5.95428  -5.95399
 Alpha  occ. eigenvalues --   -5.95376  -5.95304  -5.95252  -5.94315  -5.94283
 Alpha  occ. eigenvalues --   -5.94162  -5.94077  -5.94071  -5.93927  -5.93196
 Alpha  occ. eigenvalues --   -5.93172  -5.93147  -5.93046  -5.93028  -5.93012
 Alpha  occ. eigenvalues --   -5.93007  -5.92960  -5.92905  -5.92892  -5.92886
 Alpha  occ. eigenvalues --   -5.92866  -5.92860  -5.92835  -5.92744  -5.92738
 Alpha  occ. eigenvalues --   -5.92705  -5.92590  -5.92575  -5.92451  -5.92344
 Alpha  occ. eigenvalues --   -5.92253  -5.92195  -5.92154  -5.92098  -5.92000
 Alpha  occ. eigenvalues --   -5.91957  -5.91735  -5.91665  -5.91664  -5.91601
 Alpha  occ. eigenvalues --   -5.91559  -5.91479  -5.91450  -5.91367  -5.91289
 Alpha  occ. eigenvalues --   -2.57411  -2.57023  -2.56104  -2.55659  -2.55475
 Alpha  occ. eigenvalues --   -2.55241  -2.55150  -2.54913  -2.54875  -2.54700
 Alpha  occ. eigenvalues --   -1.60202  -1.59857  -1.59739  -1.59530  -1.59387
 Alpha  occ. eigenvalues --   -1.59374  -1.59234  -1.59056  -1.58930  -1.58853
 Alpha  occ. eigenvalues --   -1.58577  -1.58402  -1.58039  -1.57898  -1.57790
 Alpha  occ. eigenvalues --   -1.57494  -1.57432  -1.57328  -1.57305  -1.57119
 Alpha  occ. eigenvalues --   -1.57060  -1.56967  -1.56715  -1.56700  -1.56541
 Alpha  occ. eigenvalues --   -1.56512  -1.56398  -1.56259  -1.56113  -1.55708
 Alpha  occ. eigenvalues --   -0.82864  -0.77755  -0.76059  -0.75485  -0.75160
 Alpha  occ. eigenvalues --   -0.74773  -0.74092  -0.73797  -0.73112  -0.72657
 Alpha  occ. eigenvalues --   -0.72349  -0.72004  -0.71808  -0.71437  -0.70789
 Alpha  occ. eigenvalues --   -0.70600  -0.70477  -0.70093  -0.69489  -0.69082
 Alpha  occ. eigenvalues --   -0.68940  -0.52433  -0.45958  -0.44974  -0.44929
 Alpha  occ. eigenvalues --   -0.44323  -0.43724  -0.42517  -0.42377  -0.42066
 Alpha  occ. eigenvalues --   -0.42020  -0.41600  -0.41398  -0.40975  -0.40801
 Alpha  occ. eigenvalues --   -0.40506  -0.39817  -0.39632  -0.39469  -0.39290
 Alpha  occ. eigenvalues --   -0.39166  -0.38868  -0.38763  -0.38488  -0.38397
 Alpha  occ. eigenvalues --   -0.38260  -0.37915  -0.37834  -0.37476  -0.37130
 Alpha  occ. eigenvalues --   -0.36894  -0.36580  -0.36506  -0.36344  -0.36078
 Alpha  occ. eigenvalues --   -0.35773  -0.35599  -0.35276  -0.35059  -0.34928
 Alpha  occ. eigenvalues --   -0.34869  -0.34479  -0.34205  -0.34091  -0.33717
 Alpha  occ. eigenvalues --   -0.33354  -0.33283  -0.32579  -0.32552  -0.32301
 Alpha  occ. eigenvalues --   -0.32094  -0.31437  -0.31352  -0.31183  -0.30481
 Alpha  occ. eigenvalues --   -0.30312  -0.30049  -0.29741  -0.29253  -0.29085
 Alpha  occ. eigenvalues --   -0.28973  -0.28870  -0.28531  -0.27643  -0.27354
 Alpha  occ. eigenvalues --   -0.26825  -0.26539  -0.26304  -0.26115  -0.25930
 Alpha  occ. eigenvalues --   -0.25048  -0.24668  -0.23925  -0.23245
 Alpha virt. eigenvalues --   -0.18599  -0.16626  -0.15913  -0.15625  -0.15329
 Alpha virt. eigenvalues --   -0.15168  -0.14457  -0.14108  -0.13945  -0.13817
 Alpha virt. eigenvalues --   -0.13342  -0.13134  -0.12919  -0.12534  -0.12393

 Mulliken charges:
               1
     1  Mo  -0.258647
     2  S    0.375190
     3  S    0.052456
     4  S    0.225664
     5  S    0.086827
     6  Mo  -0.237357
     7  S    0.114799
     8  S    0.308989
     9  Mo  -0.556706
    10  S    0.142333
    11  S    0.194012
    12  Mo  -0.400194
    13  Mo  -0.301986
    14  S   -0.001901
    15  S    0.032461
    16  S    0.024357
    17  S    0.014296
    18  Mo   0.279447
    19  S   -0.209590
    20  S   -0.027024
    21  Mo   0.255461
    22  S   -0.190603
    23  S   -0.025864
    24  Mo  -0.109356
    25  S    0.007609
    26  S    0.206393
    27  Mo  -0.173849
    28  S    0.234362
    29  S   -0.008944
    30  Mo  -0.390004
    31  S    0.039707
    32  H    0.148503
    33  H    0.149158
 Sum of Mulliken charges =  -0.00000

 Dipole moment (field-independent basis, Debye):
    X=              2.6865    Y=              4.1400    Z=             -2.4843  Tot=              5.5253
 Quadrupole moment (field-independent basis, Debye-Ang):
   XX=           -521.7802   YY=           -445.8766   ZZ=           -562.5531
   XY=             31.1500   XZ=             10.4101   YZ=             12.2540

  Exact polarizability:    1156.405       2.398     589.477      32.439    -239.657     977.322
 Approx polarizability:    3763.590      -6.391    1935.739     118.483    -651.894    3284.028

                      1                      2                      3
                      A                      A                      A
 Frequencies --     27.4333                31.5954                41.8859
 Red. masses --     10.9738                28.6883                35.8589
 Frc consts  --      0.0049                 0.0169                 0.0371
 IR Inten    --      3.2480                 0.0420                 0.2463

                      4                      5                      6
                      A                      A                      A
 Frequencies --     49.0074                50.7866                54.2542
 Red. masses --     15.1223                34.2527                14.5295
 Frc consts  --      0.0214                 0.0521                 0.0252
 IR Inten    --      0.0472                 0.4771                 0.5564

                      7                      8                      9
                      A                      A                      A
 Frequencies --     61.3687                62.5956                71.2269
 Red. masses --     12.1796                21.0854                34.9602
 Frc consts  --      0.0270                 0.0487                 0.1045
 IR Inten    --      0.2627                 1.0453                 1.6043

                     10                     11                     12
                      A                      A                      A
 Frequencies --     76.1822                80.7591                81.1986
 Red. masses --      3.9637                 7.6648                30.3748
 Frc consts  --      0.0136                 0.0295                 0.1180
 IR Inten    --      4.3533                 5.6347                 2.8804

                     13                     14                     15
                      A                      A                      A
 Frequencies --     87.2694                90.2616                94.2287
 Red. masses --     17.2361                40.6635                 7.2722
 Frc consts  --      0.0773                 0.1952                 0.0380
 IR Inten    --      1.7723                 2.2246                 0.5760

                     16                     17                     18
                      A                      A                      A
 Frequencies --     97.3629               105.3081               105.8458
 Red. masses --      4.9838                20.3597                11.1052
 Frc consts  --      0.0278                 0.1330                 0.0733
 IR Inten    --      1.6577                 4.2111                 0.9858

                     19                     20                     21
                      A                      A                      A
 Frequencies --    112.6478               114.9241               124.4046
 Red. masses --     44.3877                15.7293                44.5546
 Frc consts  --      0.3319                 0.1224                 0.4063
 IR Inten    --      1.8822                 1.0987                 0.1627

                     22                     23                     24
                      A                      A                      A
 Frequencies --    130.6372               132.8613               139.2795
 Red. masses --     50.5998                41.7787                34.1126
 Frc consts  --      0.5088                 0.4345                 0.3899
 IR Inten    --      0.8563                 2.6803                 1.2432

                     25                     26                     27
                      A                      A                      A
 Frequencies --    144.4310               148.7421               150.7476
 Red. masses --     38.7567                36.7947                22.3459
 Frc consts  --      0.4763                 0.4796                 0.2992
 IR Inten    --      0.2206                 1.2072                 0.2341

                     28                     29                     30
                      A                      A                      A
 Frequencies --    153.1556               155.7996               159.6531
 Red. masses --     49.3435                35.0619                37.2805
 Frc consts  --      0.6819                 0.5014                 0.5599
 IR Inten    --      2.7248                 0.7338                 3.3984

                     31                     32                     33
                      A                      A                      A
 Frequencies --    165.1742               168.2995               175.1007
 Red. masses --     39.7895                43.1716                53.7243
 Frc consts  --      0.6396                 0.7205                 0.9705
 IR Inten    --      1.7162                 0.2701                 3.9066

                     34                     35                     36
                      A                      A                      A
 Frequencies --    176.2366               181.0960               185.2953
 Red. masses --     33.4146                36.5899                50.2731
 Frc consts  --      0.6115                 0.7070                 1.0170
 IR Inten    --      0.0217                 0.0945                 1.3072

                     37                     38                     39
                      A                      A                      A
 Frequencies --    188.9182               195.9176               202.2525
 Red. masses --     46.8806                42.6168                38.3994
 Frc consts  --      0.9858                 0.9638                 0.9255
 IR Inten    --      3.6732                 2.5262                 5.8997

                     40                     41                     42
                      A                      A                      A
 Frequencies --    207.8340               210.4768               217.6570
 Red. masses --     44.2195                43.9764                43.9420
 Frc consts  --      1.1254                 1.1478                 1.2265
 IR Inten    --      0.6905                 0.2745                 0.6362

                     43                     44                     45
                      A                      A                      A
 Frequencies --    224.5193               226.7186               236.6456
 Red. masses --     34.1977                36.2685                35.6030
 Frc consts  --      1.0157                 1.0984                 1.1747
 IR Inten    --      2.1541                 7.4511                 2.9483

                     46                     47                     48
                      A                      A                      A
 Frequencies --    242.0357               248.1957               252.3876
 Red. masses --     35.2707                36.1407                42.4317
 Frc consts  --      1.2174                 1.3117                 1.5925
 IR Inten    --      1.2745                 9.0270                 1.2274

                     49                     50                     51
                      A                      A                      A
 Frequencies --    255.1259               261.6196               272.2009
 Red. masses --     37.3337                39.1906                38.3702
 Frc consts  --      1.4317                 1.5804                 1.6750
 IR Inten    --      1.0193                 0.2198                 0.4666

                     52                     53                     54
                      A                      A                      A
 Frequencies --    276.1211               281.5588               285.4429
 Red. masses --     37.5549                39.7800                34.9851
 Frc consts  --      1.6870                 1.8580                 1.6795
 IR Inten    --      0.7076                 1.0836                 2.7092

                     55                     56                     57
                      A                      A                      A
 Frequencies --    287.9006               288.5678               299.0846
 Red. masses --     35.7727                39.2156                36.8584
 Frc consts  --      1.7470                 1.9240                 1.9426
 IR Inten    --      0.0253                11.3296                 3.1572

                     58                     59                     60
                      A                      A                      A
 Frequencies --    300.6272               304.6135               308.5746
 Red. masses --     38.0647                35.6665                35.7838
 Frc consts  --      2.0269                 1.9499                 2.0075
 IR Inten    --      0.2063                 0.4996                 0.8411

                     61                     62                     63
                      A                      A                      A
 Frequencies --    311.4623               318.5394               322.6580
 Red. masses --     36.9199                37.0067                38.8173
 Frc consts  --      2.1102                 2.2124                 2.3810
 IR Inten    --      2.9111                 0.4638                 3.0594

                     64                     65                     66
                      A                      A                      A
 Frequencies --    335.5580               339.1038               344.9743
 Red. masses --     42.3863                38.5585                37.9284
 Frc consts  --      2.8120                 2.6124                 2.6594
 IR Inten    --      1.1051                 0.1328                 0.8385

                     67                     68                     69
                      A                      A                      A
 Frequencies --    355.2062               367.9780               381.0004
 Red. masses --     41.0020                39.6315                25.2795
 Frc consts  --      3.0480                 3.1618                 2.1621
 IR Inten    --      2.0440                 0.7330                 8.0397

                     70                     71                     72
                      A                      A                      A
 Frequencies --    392.5451               404.0502               409.8824
 Red. masses --     33.6996                27.9979                34.6789
 Frc consts  --      3.0595                 2.6931                 3.4327
 IR Inten    --      3.6533                 1.8822                 3.1492

                     73                     74                     75
                      A                      A                      A
 Frequencies --    416.1475               416.5815               420.1055
 Red. masses --     37.6785                 5.8965                16.4530
 Frc consts  --      3.8445                 0.6029                 1.7108
 IR Inten    --      2.3855                 9.5359                 3.2004

                     76                     77                     78
                      A                      A                      A
 Frequencies --    422.1640               428.5653               430.6818
 Red. masses --     32.6553                13.2079                 9.9516
 Frc consts  --      3.4290                 1.4293                 1.0876
 IR Inten    --      2.1361                 2.8143                 2.2527

                     79                     80                     81
                      A                      A                      A
 Frequencies --    432.0755               435.0396               437.9719
 Red. masses --     23.7082                11.9113                13.0153
 Frc consts  --      2.6078                 1.3282                 1.4710
 IR Inten    --      2.9878                27.3790                 2.3178

                     82                     83                     84
                      A                      A                      A
 Frequencies --    442.7614               454.7259               456.3196
 Red. masses --      1.9480                37.5994                39.6570
 Frc consts  --      0.2250                 4.5807                 4.8653
 IR Inten    --      4.8330                 0.7858                12.2296

                     85                     86                     87
                      A                      A                      A
 Frequencies --    459.5208               471.0885               475.9859
 Red. masses --     38.5030                38.4408                39.3855
 Frc consts  --      4.7902                 5.0263                 5.2574
 IR Inten    --     13.1633                 8.0791                11.2535

                     88                     89                     90
                      A                      A                      A
 Frequencies --    528.3699               560.9692               564.4288
 Red. masses --      1.0740                40.0403                39.9114
 Frc consts  --      0.1767                 7.4238                 7.4914
 IR Inten    --      5.3616               243.9021               155.5534

                     91                     92                     93
                      A                      A                      A
 Frequencies --   1214.7775              2690.4625              2707.3691
 Red. masses --      1.0398                 1.0349                 1.0407
 Frc consts  --      0.9040                 4.4136                 4.4945
 IR Inten    --      6.8868                 4.1216                 3.5453

 - Thermochemistry -
 -------------------
 Temperature   298.150 Kelvin.  Pressure   1.00000 Atm.
 Atom     1 has atomic number 42 and mass  97.90550

 Molecular mass:  1652.48416 amu.
 Principal axes and moments of inertia in atomic units:
                           1         2         3
     Eigenvalues --  ******************************
           X            0.98730  -0.15854  -0.00975
           Y           -0.05751  -0.41398   0.90847
           Z            0.14806   0.89637   0.41784
 This molecule is an asymmetric top.
 Rotational symmetry number  1.
 Warning -- assumption of classical behavior for rotation
           may cause significant error
 Rotational temperatures (Kelvin)      0.00168     0.00165     0.00092
 Rotational constants (GHZ):           0.03502     0.03430     0.01918
 Zero-point vibrational energy     174721.3 (Joules/Mol)
                                   41.75939 (Kcal/Mol)
 Warning -- explicit consideration of  90 degrees of freedom as
           vibrations may cause significant error
 Vibrational temperatures:     39.47    45.46    60.26    70.51    73.07
          (Kelvin)             78.06    88.30    90.06   102.48   109.61
                              116.19   116.83   125.56   129.87   135.57
                              140.08   151.51   152.29   162.08   165.35
                              178.99   187.96   191.16   200.39   207.80
                              214.01   216.89   220.36   224.16   229.71
                              237.65   242.15   251.93   253.57   260.56
                              266.60   271.81   281.88   291.00   299.03
                              302.83   313.16   323.03   326.20   340.48
                              348.24   357.10   363.13   367.07   376.41
                              391.64   397.28   405.10   410.69   414.22
                              415.18   430.32   432.54   438.27   443.97
                              448.12   458.31   464.23   482.79   487.89
                              496.34   511.06   529.44   548.17   564.78
                              581.34   589.73   598.74   599.37   604.44
                              607.40   616.61   619.66   621.66   625.92
                              630.14   637.03   654.25   656.54   661.15
                              677.79   684.84   760.21   807.11   812.09
                             1747.79  3870.98  3895.30

 Zero-point correction=                           0.066548 (Hartree/Particle)
 Thermal correction to Energy=                    0.115790
 Thermal correction to Enthalpy=                  0.116734
 Thermal correction to Gibbs Free Energy=        -0.017963
 Sum of electronic and zero-point Energies=          -9039.675871
 Sum of electronic and thermal Energies=             -9039.626629
 Sum of electronic and thermal Enthalpies=           -9039.625685
 Sum of electronic and thermal Free Energies=        -9039.760382

                     E (Thermal)             CV                S
                      KCal/Mol        Cal/Mol-Kelvin    Cal/Mol-Kelvin
 Total                   72.659            160.722            283.492
 Electronic               0.000              0.000              0.000
 Translational            0.889              2.981             48.079
 Rotational               0.889              2.981             40.763
 Vibrational             70.882            154.760            194.650
 Vibration     1          0.593              1.984              6.007
 Vibration     2          0.594              1.983              5.727
 Vibration     3          0.595              1.980              5.168
 Vibration     4          0.595              1.978              4.857
 Vibration     5          0.595              1.977              4.787
 Vibration     6          0.596              1.976              4.656
 Vibration     7          0.597              1.973              4.413
 Vibration     8          0.597              1.972              4.374
 Vibration     9          0.598              1.968              4.119
 Vibration    10          0.599              1.965              3.987
 Vibration    11          0.600              1.962              3.872
 Vibration    12          0.600              1.962              3.862
 Vibration    13          0.601              1.958              3.720
 Vibration    14          0.602              1.956              3.654
 Vibration    15          0.603              1.953              3.570
 Vibration    16          0.603              1.951              3.506
 Vibration    17          0.605              1.945              3.354
 Vibration    18          0.605              1.945              3.344
 Vibration    19          0.607              1.939              3.223
 Vibration    20          0.608              1.937              3.184
 Vibration    21          0.610              1.929              3.031
 Vibration    22          0.612              1.923              2.937
 Vibration    23          0.613              1.921              2.904
 Vibration    24          0.615              1.914              2.814
 Vibration    25          0.616              1.909              2.744
 Vibration    26          0.618              1.904              2.688
 Vibration    27          0.618              1.902              2.663
 Vibration    28          0.619              1.899              2.633
 Vibration    29          0.620              1.896              2.600
 Vibration    30          0.622              1.892              2.554
 Vibration    31          0.624              1.885              2.490
 Vibration    32          0.625              1.881              2.454
 Vibration    33          0.627              1.873              2.380
 Vibration    34          0.628              1.872              2.368
 Vibration    35          0.630              1.865              2.317
 Vibration    36          0.631              1.860              2.274
 Vibration    37          0.633              1.855              2.238
 Vibration    38          0.636              1.846              2.171
 Vibration    39          0.639              1.837              2.113
 Vibration    40          0.641              1.829              2.063
 Vibration    41          0.643              1.825              2.040
 Vibration    42          0.646              1.814              1.978
 Vibration    43          0.649              1.804              1.922
 Vibration    44          0.650              1.800              1.905
 Vibration    45          0.656              1.785              1.828
 Vibration    46          0.658              1.776              1.788
 Vibration    47          0.662              1.766              1.743
 Vibration    48          0.664              1.759              1.714
 Vibration    49          0.665              1.754              1.695
 Vibration    50          0.669              1.743              1.651
 Vibration    51          0.675              1.725              1.582
 Vibration    52          0.678              1.718              1.558
 Vibration    53          0.681              1.708              1.524
 Vibration    54          0.683              1.701              1.501
 Vibration    55          0.685              1.696              1.486
 Vibration    56          0.685              1.695              1.482
 Vibration    57          0.692              1.675              1.422
 Vibration    58          0.693              1.673              1.413
 Vibration    59          0.696              1.665              1.391
 Vibration    60          0.698              1.657              1.370
 Vibration    61          0.700              1.652              1.355
 Vibration    62          0.705              1.638              1.318
 Vibration    63          0.708              1.630              1.297
 Vibration    64          0.717              1.604              1.233
 Vibration    65          0.719              1.597              1.216
 Vibration    66          0.723              1.585              1.189
 Vibration    67          0.731              1.565              1.143
 Vibration    68          0.741              1.538              1.088
 Vibration    69          0.751              1.511              1.035
 Vibration    70          0.760              1.486              0.990
 Vibration    71          0.769              1.461              0.948
 Vibration    72          0.774              1.449              0.927
 Vibration    73          0.779              1.435              0.905
 Vibration    74          0.780              1.434              0.904
 Vibration    75          0.783              1.427              0.892
 Vibration    76          0.784              1.422              0.885
 Vibration    77          0.790              1.408              0.863
 Vibration    78          0.792              1.403              0.856
 Vibration    79          0.793              1.400              0.852
 Vibration    80          0.796              1.394              0.842
 Vibration    81          0.798              1.387              0.833
 Vibration    82          0.802              1.377              0.818
 Vibration    83          0.813              1.350              0.782
 Vibration    84          0.815              1.347              0.777
 Vibration    85          0.817              1.340              0.768
 Vibration    86          0.828              1.314              0.735
 Vibration    87          0.833              1.303              0.721
 Vibration    88          0.883              1.187              0.591
 Vibration    89          0.917              1.116              0.522
 Vibration    90          0.920              1.108              0.515

                           ! Non-Optimized Parameters !
 Normal termination of Gaussian 16 at Tue Dec 13 12:46:10 2022.
