 Gaussian 16, Revision C.01,
 Gaussian 16:  ES64L-G16RevC.01  3-Jul-2019

 ---------------------------------------
 # opt freq b3lyp/gen nosymm pseudo=read
 ---------------------------------------

 -------------------
 Title Card Required
 -------------------
 Symbolic Z-matrix:
 Charge =  0 Multiplicity = 1

 SCF Done:  E(RB3LYP) =  -9439.12225950     A.U. after   41 cycles
 SCF Done:  E(RB3LYP) =  -9439.13590403     A.U. after   23 cycles
 SCF Done:  E(RB3LYP) =  -9439.14287544     A.U. after   23 cycles
 SCF Done:  E(RB3LYP) =  -9439.14401067     A.U. after   21 cycles
 SCF Done:  E(RB3LYP) =  -9439.14549638     A.U. after   24 cycles
 SCF Done:  E(RB3LYP) =  -9439.14625232     A.U. after   21 cycles
 SCF Done:  E(RB3LYP) =  -9439.14671530     A.U. after   22 cycles
 SCF Done:  E(RB3LYP) =  -9439.14681518     A.U. after   20 cycles
 SCF Done:  E(RB3LYP) =  -9439.14691531     A.U. after   19 cycles
 SCF Done:  E(RB3LYP) =  -9439.14698196     A.U. after   20 cycles
 SCF Done:  E(RB3LYP) =  -9439.15031084     A.U. after   19 cycles
 SCF Done:  E(RB3LYP) =  -9439.15032750     A.U. after   18 cycles
 SCF Done:  E(RB3LYP) =  -9439.15032939     A.U. after   16 cycles
 SCF Done:  E(RB3LYP) =  -9439.15033026     A.U. after   17 cycles
 SCF Done:  E(RB3LYP) =  -9439.15033197     A.U. after   17 cycles
 SCF Done:  E(RB3LYP) =  -9439.15033242     A.U. after   16 cycles
 SCF Done:  E(RB3LYP) =  -9439.15033291     A.U. after   17 cycles
 SCF Done:  E(RB3LYP) =  -9439.15033321     A.U. after   16 cycles
 SCF Done:  E(RB3LYP) =  -9439.15033334     A.U. after   14 cycles
 Optimization completed.
    -- Stationary point found.
 Normal termination of Gaussian 16 at Mon Dec 12 10:52:02 2022.

 ------------------------------------------------------------------
 #N Geom=AllCheck Guess=TCheck SCRF=Check GenChk RB3LYP/ChkBas Freq
 ------------------------------------------------------------------

 Structure from the checkpoint file:  "/localscratch/chegho/Gau-825.chk"
 -------------------
 Title Card Required
 -------------------
 Charge =  0 Multiplicity = 1

                          Input orientation:
 ---------------------------------------------------------------------
 Center     Atomic      Atomic             Coordinates (Angstroms)
 Number     Number       Type             X           Y           Z
 ---------------------------------------------------------------------
      1         42           0        0.382759    2.126440   12.265386
      2         16           0        1.291244    4.187893   11.661084
      3         16           0       -1.566930    2.844203   13.304666
      4         16           0       -0.417821    0.999299   10.284055
      5         16           0        2.348027    0.474279   11.538929
      6         42           0       -2.041357    2.648915   10.999919
      7         16           0       -3.177988    1.610358    8.998377
      8         16           0       -1.319272    4.772974   10.264178
      9         42           0        0.489558    3.068280    9.568207
     10         16           0       -0.541044    2.622446    7.315614
     11         16           0        2.408160    1.959014    8.563152
     12         42           0        2.901371    2.763928   10.774862
     13         42           0       -2.292948    3.854810    8.414326
     14         16           0        4.339901    3.079024   12.906012
     15         16           0        4.452637    4.363520   10.005589
     16         16           0       -4.495863    4.917417    8.505595
     17         16           0       -1.956501    5.691916    6.855005
     18         42           0       -4.820038    3.040541    9.724617
     19         16           0       -6.764607    2.247274    9.408613
     20         16           0       -4.327691    3.460307   11.848588
     21         42           0        3.092825    1.352494   13.522263
     22         16           0        4.200577   -0.040538   14.674187
     23         16           0        1.255454    2.087082   14.595842
     24         42           0        0.194940    4.892405    6.961864
     25         16           0        0.543574    6.452140    5.103813
     26         16           0        1.509229    6.159758    8.533684
     27         42           0        2.967502    4.270786    8.180328
     28         16           0        2.180411    3.836337    5.871536
     29         16           0        4.661705    5.613401    7.068347
     30         42           0        2.518779    6.196676    6.316619
     31         16           0        3.698670    6.508441    3.964926
     32          1           0        3.064588    7.563074    3.408383
     33          1           0        4.818935    7.209035    4.243977
     34         16           0        2.958748    8.863779    6.581049
     35          1           0        3.529964    8.895220    7.801797
     36          1           0        1.753077    9.267311    7.029457
 ---------------------------------------------------------------------

 SCF Done:  E(RB3LYP) =  -9439.15033334     A.U. after    3 cycles

 Alpha  occ. eigenvalues --  -88.95169 -88.94860 -88.93102 -88.93015 -88.91789
 Alpha  occ. eigenvalues --  -88.91516 -88.91399 -88.91276 -88.90125 -88.90096
 Alpha  occ. eigenvalues --  -88.88870 -88.88779 -88.88746 -88.88667 -88.88641
 Alpha  occ. eigenvalues --  -88.88575 -88.88110 -88.87790 -88.87752 -88.87368
 Alpha  occ. eigenvalues --  -88.87331 -88.87235  -8.02842  -8.02420  -8.00434
 Alpha  occ. eigenvalues --   -8.00343  -7.99159  -7.98899  -7.98861  -7.98792
 Alpha  occ. eigenvalues --   -7.97596  -7.97552  -7.96486  -7.96484  -7.96441
 Alpha  occ. eigenvalues --   -7.96413  -7.96293  -7.96062  -7.95718  -7.95647
 Alpha  occ. eigenvalues --   -7.95385  -7.95211  -7.94986  -7.94857  -5.99159
 Alpha  occ. eigenvalues --   -5.98871  -5.98740  -5.98461  -5.98374  -5.97950
 Alpha  occ. eigenvalues --   -5.96477  -5.96405  -5.96379  -5.96344  -5.96331
 Alpha  occ. eigenvalues --   -5.96246  -5.95229  -5.95134  -5.95036  -5.94947
 Alpha  occ. eigenvalues --   -5.94884  -5.94883  -5.94860  -5.94814  -5.94788
 Alpha  occ. eigenvalues --   -5.94778  -5.94761  -5.94666  -5.93621  -5.93595
 Alpha  occ. eigenvalues --   -5.93572  -5.93565  -5.93474  -5.93424  -5.92585
 Alpha  occ. eigenvalues --   -5.92577  -5.92534  -5.92498  -5.92436  -5.92434
 Alpha  occ. eigenvalues --   -5.92400  -5.92377  -5.92353  -5.92290  -5.92286
 Alpha  occ. eigenvalues --   -5.92285  -5.92248  -5.92231  -5.92079  -5.92079
 Alpha  occ. eigenvalues --   -5.92063  -5.91955  -5.91817  -5.91638  -5.91631
 Alpha  occ. eigenvalues --   -5.91587  -5.91572  -5.91535  -5.91533  -5.91261
 Alpha  occ. eigenvalues --   -5.91235  -5.91212  -5.91148  -5.91088  -5.91042
 Alpha  occ. eigenvalues --   -5.90944  -5.90904  -5.90854  -5.90814  -5.90736
 Alpha  occ. eigenvalues --   -2.56884  -2.56529  -2.55446  -2.55041  -2.54800
 Alpha  occ. eigenvalues --   -2.54671  -2.54608  -2.54379  -2.54279  -2.54238
 Alpha  occ. eigenvalues --   -1.59662  -1.59325  -1.59216  -1.59007  -1.58861
 Alpha  occ. eigenvalues --   -1.58765  -1.58582  -1.58483  -1.58357  -1.58191
 Alpha  occ. eigenvalues --   -1.57958  -1.57770  -1.57405  -1.57237  -1.57127
 Alpha  occ. eigenvalues --   -1.56904  -1.56761  -1.56714  -1.56666  -1.56630
 Alpha  occ. eigenvalues --   -1.56452  -1.56339  -1.56218  -1.56168  -1.55976
 Alpha  occ. eigenvalues --   -1.55939  -1.55879  -1.55735  -1.55619  -1.55181
 Alpha  occ. eigenvalues --   -0.82423  -0.81656  -0.77160  -0.75485  -0.74877
 Alpha  occ. eigenvalues --   -0.74453  -0.74165  -0.73414  -0.73187  -0.72525
 Alpha  occ. eigenvalues --   -0.71904  -0.71748  -0.71460  -0.71222  -0.70836
 Alpha  occ. eigenvalues --   -0.70146  -0.70024  -0.69979  -0.69402  -0.68942
 Alpha  occ. eigenvalues --   -0.68582  -0.68445  -0.51925  -0.51306  -0.45566
 Alpha  occ. eigenvalues --   -0.45118  -0.44371  -0.44205  -0.43749  -0.43142
 Alpha  occ. eigenvalues --   -0.41832  -0.41619  -0.41499  -0.41445  -0.41022
 Alpha  occ. eigenvalues --   -0.40766  -0.40292  -0.40233  -0.39953  -0.39171
 Alpha  occ. eigenvalues --   -0.38936  -0.38869  -0.38813  -0.38629  -0.38534
 Alpha  occ. eigenvalues --   -0.38152  -0.37960  -0.37797  -0.37737  -0.37385
 Alpha  occ. eigenvalues --   -0.37215  -0.37113  -0.36646  -0.36413  -0.36029
 Alpha  occ. eigenvalues --   -0.35878  -0.35754  -0.35517  -0.35203  -0.35094
 Alpha  occ. eigenvalues --   -0.34897  -0.34501  -0.34465  -0.34200  -0.33970
 Alpha  occ. eigenvalues --   -0.33830  -0.33601  -0.33252  -0.33084  -0.32759
 Alpha  occ. eigenvalues --   -0.32615  -0.32020  -0.31967  -0.31735  -0.31356
 Alpha  occ. eigenvalues --   -0.30892  -0.30657  -0.30591  -0.29978  -0.29839
 Alpha  occ. eigenvalues --   -0.29383  -0.28918  -0.28715  -0.28560  -0.28382
 Alpha  occ. eigenvalues --   -0.28093  -0.27949  -0.27109  -0.26696  -0.26179
 Alpha  occ. eigenvalues --   -0.25829  -0.25812  -0.25585  -0.25358  -0.24285
 Alpha  occ. eigenvalues --   -0.24016  -0.23229  -0.22471
 Alpha virt. eigenvalues --   -0.17960  -0.16104  -0.15305  -0.14913  -0.14856
 Alpha virt. eigenvalues --   -0.14234  -0.13925  -0.13767  -0.13392  -0.13050
 Alpha virt. eigenvalues --   -0.12764  -0.12636  -0.12426  -0.11968  -0.11903

 Mulliken charges:
               1
     1  Mo  -0.254307
     2  S    0.369393
     3  S    0.043813
     4  S    0.225329
     5  S    0.086899
     6  Mo  -0.227277
     7  S    0.108298
     8  S    0.302699
     9  Mo  -0.581115
    10  S    0.148196
    11  S    0.191023
    12  Mo  -0.367130
    13  Mo  -0.287789
    14  S   -0.006264
    15  S    0.029306
    16  S    0.017889
    17  S    0.011140
    18  Mo   0.279550
    19  S   -0.213749
    20  S   -0.031288
    21  Mo   0.251111
    22  S   -0.197423
    23  S   -0.026900
    24  Mo  -0.124655
    25  S    0.022004
    26  S    0.204392
    27  Mo  -0.182066
    28  S    0.247559
    29  S    0.008714
    30  Mo  -0.741868
    31  S    0.119177
    32  H    0.124207
    33  H    0.123543
    34  S    0.027596
    35  H    0.150133
    36  H    0.149859
 Sum of Mulliken charges =  -0.00000

 Dipole moment (field-independent basis, Debye):
    X=              4.4041    Y=              6.8383    Z=             -5.0782  Tot=              9.5889
 Quadrupole moment (field-independent basis, Debye-Ang):
   XX=           -535.5322   YY=           -429.2930   ZZ=           -612.3216
   XY=             44.6654   XZ=             14.9845   YZ=             24.2478

  Exact polarizability:    1174.367      50.264     693.917      28.245    -303.236     970.713
 Approx polarizability:    3865.895     132.150    2200.724     141.084    -838.166    3164.495

                      1                      2                      3
                      A                      A                      A
 Frequencies --     28.9440                35.9784                42.8483
 Red. masses --     23.8081                19.0776                31.3734
 Frc consts  --      0.0118                 0.0145                 0.0339
 IR Inten    --      0.1639                 1.7645                 0.6193

                      4                      5                      6
                      A                      A                      A
 Frequencies --     46.0121                49.7476                55.6949
 Red. masses --     18.7248                26.3947                40.1792
 Frc consts  --      0.0234                 0.0385                 0.0734
 IR Inten    --      0.2354                 0.4941                 0.9795

                      7                      8                      9
                      A                      A                      A
 Frequencies --     57.5412                63.8376                67.8973
 Red. masses --     20.7484                24.7112                 8.1782
 Frc consts  --      0.0405                 0.0593                 0.0222
 IR Inten    --      0.3327                 3.5533                 1.1562

                     10                     11                     12
                      A                      A                      A
 Frequencies --     69.4859                73.3590                78.0719
 Red. masses --     25.7404                12.7548                32.3346
 Frc consts  --      0.0732                 0.0404                 0.1161
 IR Inten    --      1.5629                 6.6558                 3.5431

                     13                     14                     15
                      A                      A                      A
 Frequencies --     85.5114                87.3591                89.7019
 Red. masses --     24.3178                 5.5914                14.5532
 Frc consts  --      0.1048                 0.0251                 0.0690
 IR Inten    --      2.9521                 4.1958                 0.3194

                     16                     17                     18
                      A                      A                      A
 Frequencies --     92.5115                97.4177               102.5008
 Red. masses --      2.0821                19.7343                12.5575
 Frc consts  --      0.0105                 0.1103                 0.0777
 IR Inten    --      2.2869                 1.7118                 0.4477

                     19                     20                     21
                      A                      A                      A
 Frequencies --    106.3527               110.0943               114.6684
 Red. masses --     11.4442                13.3845                12.8727
 Frc consts  --      0.0763                 0.0956                 0.0997
 IR Inten    --      2.6561                 1.2397                 1.3111

                     22                     23                     24
                      A                      A                      A
 Frequencies --    119.6999               123.6692               127.7339
 Red. masses --      9.5020                32.4625                10.1788
 Frc consts  --      0.0802                 0.2925                 0.0978
 IR Inten    --      4.7991                 0.2028                 1.5932

                     25                     26                     27
                      A                      A                      A
 Frequencies --    133.6837               141.3190               142.3350
 Red. masses --     23.9010                 2.6845                 4.1778
 Frc consts  --      0.2517                 0.0316                 0.0499
 IR Inten    --      1.7431                 4.0584                 0.5815

                     28                     29                     30
                      A                      A                      A
 Frequencies --    145.5448               146.4891               148.9032
 Red. masses --      5.6534                20.2645                24.5910
 Frc consts  --      0.0706                 0.2562                 0.3212
 IR Inten    --      0.5957                 0.7310                 1.0542

                     31                     32                     33
                      A                      A                      A
 Frequencies --    155.8279               157.3817               159.4118
 Red. masses --     32.5395                21.3865                34.7656
 Frc consts  --      0.4655                 0.3121                 0.5205
 IR Inten    --      1.7756                 3.1433                 1.7846

                     34                     35                     36
                      A                      A                      A
 Frequencies --    164.1889               167.2122               171.8218
 Red. masses --     41.9779                29.5241                31.6593
 Frc consts  --      0.6667                 0.4864                 0.5507
 IR Inten    --      2.0518                 0.3918                 0.8237

                     37                     38                     39
                      A                      A                      A
 Frequencies --    174.4757               180.2202               183.8062
 Red. masses --     53.4051                43.6205                50.8790
 Frc consts  --      0.9579                 0.8347                 1.0128
 IR Inten    --      3.4591                 0.1777                 1.6144

                     40                     41                     42
                      A                      A                      A
 Frequencies --    185.6488               187.4975               194.5798
 Red. masses --     15.9728                45.2965                35.0285
 Frc consts  --      0.3244                 0.9382                 0.7814
 IR Inten    --      1.5841                 3.9597                 1.3150

                     43                     44                     45
                      A                      A                      A
 Frequencies --    201.3988               206.0661               210.2574
 Red. masses --     37.8129                43.8878                39.6408
 Frc consts  --      0.9037                 1.0980                 1.0325
 IR Inten    --      4.6740                 1.5654                 0.7622

                     46                     47                     48
                      A                      A                      A
 Frequencies --    217.0674               221.6068               230.0075
 Red. masses --     44.8839                35.8413                34.4383
 Frc consts  --      1.2460                 1.0371                 1.0734
 IR Inten    --      0.3373                 4.8356                 5.0439

                     49                     50                     51
                      A                      A                      A
 Frequencies --    241.8206               249.6744               250.9389
 Red. masses --     34.2775                33.8268                36.3028
 Frc consts  --      1.1810                 1.2424                 1.3469
 IR Inten    --      2.7515                 6.9427                 2.4457

                     52                     53                     54
                      A                      A                      A
 Frequencies --    256.1854               259.7547               262.1634
 Red. masses --     38.9613                38.4614                35.5538
 Frc consts  --      1.5066                 1.5290                 1.4397
 IR Inten    --      1.3321                 2.6243                 2.3220

                     55                     56                     57
                      A                      A                      A
 Frequencies --    267.9126               276.0116               278.3577
 Red. masses --     37.0654                41.3919                36.8788
 Frc consts  --      1.5675                 1.8579                 1.6836
 IR Inten    --      1.3134                 0.0727                 0.1345

                     58                     59                     60
                      A                      A                      A
 Frequencies --    285.4284               288.6768               289.5124
 Red. masses --     36.3453                37.9007                35.1416
 Frc consts  --      1.7446                 1.8609                 1.7354
 IR Inten    --     10.7997                 2.5644                 2.5946

                     61                     62                     63
                      A                      A                      A
 Frequencies --    299.6490               302.1716               308.8873
 Red. masses --     37.8604                34.5871                36.0602
 Frc consts  --      2.0029                 1.8607                 2.0271
 IR Inten    --      2.1106                 1.8693                 0.1104

                     64                     65                     66
                      A                      A                      A
 Frequencies --    310.7490               313.9607               318.7287
 Red. masses --     35.5689                36.4686                37.6100
 Frc consts  --      2.0237                 2.1180                 2.2511
 IR Inten    --      1.9154                 0.9944                 0.6598

                     67                     68                     69
                      A                      A                      A
 Frequencies --    321.9335               335.6338               340.8668
 Red. masses --     37.9552                41.8642                38.8737
 Frc consts  --      2.3177                 2.7786                 2.6612
 IR Inten    --      2.2723                 2.4386                 0.3232

                     70                     71                     72
                      A                      A                      A
 Frequencies --    344.9023               355.0470               367.1305
 Red. masses --     35.8948                41.0272                39.0464
 Frc consts  --      2.5158                 3.0471                 3.1008
 IR Inten    --      0.3727                 2.6799                 1.5985

                     73                     74                     75
                      A                      A                      A
 Frequencies --    370.9929               388.6588               398.8387
 Red. masses --     33.1763                33.5044                25.6785
 Frc consts  --      2.6903                 2.9819                 2.4067
 IR Inten    --      7.1320                 3.4991                 2.3595

                     76                     77                     78
                      A                      A                      A
 Frequencies --    403.3710               408.3009               410.1681
 Red. masses --     31.9313                33.1422                33.1877
 Frc consts  --      3.0611                 3.2553                 3.2897
 IR Inten    --      1.6223                 7.3297                 8.7954

                     79                     80                     81
                      A                      A                      A
 Frequencies --    412.1920               417.5396               422.3450
 Red. masses --     27.2545                26.8648                34.6545
 Frc consts  --      2.7283                 2.7595                 3.6420
 IR Inten    --     17.4006                 9.6805                 2.1072

                     82                     83                     84
                      A                      A                      A
 Frequencies --    426.7057               429.3370               432.4849
 Red. masses --     12.3326                27.6666                34.0562
 Frc consts  --      1.3230                 3.0047                 3.7531
 IR Inten    --      7.4814                 2.5536                 4.6982

                     85                     86                     87
                      A                      A                      A
 Frequencies --    438.1935               455.3422               457.0994
 Red. masses --     35.4456                31.8297                38.9242
 Frc consts  --      4.0100                 3.8883                 4.7917
 IR Inten    --      0.1496                 0.6501                11.8217

                     88                     89                     90
                      A                      A                      A
 Frequencies --    459.8533               465.1404               471.4341
 Red. masses --     26.6930                 1.2105                33.2862
 Frc consts  --      3.3257                 0.1543                 4.3587
 IR Inten    --     16.7588                17.6839                 8.0827

                     91                     92                     93
                      A                      A                      A
 Frequencies --    475.4660               516.3770               518.9669
 Red. masses --     38.5647                 1.0536                 1.1076
 Frc consts  --      5.1366                 0.1655                 0.1758
 IR Inten    --     11.4172                 3.4131                 7.5573

                     94                     95                     96
                      A                      A                      A
 Frequencies --    560.0405               562.9555               592.5666
 Red. masses --     40.0383                39.9345                 1.0687
 Frc consts  --      7.3989                 7.4567                 0.2211
 IR Inten    --    255.1455               155.5507                 5.6582

                     97                     98                     99
                      A                      A                      A
 Frequencies --   1208.6488              1213.3703              2665.2181
 Red. masses --      1.0386                 1.0393                 1.0350
 Frc consts  --      0.8939                 0.9015                 4.3316
 IR Inten    --      4.5980                 4.4232                 3.9280

                    100                    101                    102
                      A                      A                      A
 Frequencies --   2684.0582              2690.2354              2706.9188
 Red. masses --      1.0406                 1.0349                 1.0406
 Frc consts  --      4.4168                 4.4131                 4.4925
 IR Inten    --      0.6907                 2.3665                 2.3843

 - Thermochemistry -
 -------------------
 Temperature   298.150 Kelvin.  Pressure   1.00000 Atm.
 Atom     1 has atomic number 42 and mass  97.90550

 Molecular mass:  1686.47188 amu.
 Principal axes and moments of inertia in atomic units:
                           1         2         3
     Eigenvalues --  ******************************
           X           -0.44576   0.89204  -0.07458
           Y           -0.50603  -0.18238   0.84301
           Z            0.73840   0.41352   0.53269
 This molecule is an asymmetric top.
 Rotational symmetry number  1.
 Warning -- assumption of classical behavior for rotation
           may cause significant error
 Rotational temperatures (Kelvin)      0.00164     0.00150     0.00087
 Rotational constants (GHZ):           0.03424     0.03130     0.01813
 Zero-point vibrational energy     223356.6 (Joules/Mol)
                                   53.38351 (Kcal/Mol)
 Warning -- explicit consideration of  96 degrees of freedom as
           vibrations may cause significant error
 Vibrational temperatures:     41.64    51.76    61.65    66.20    71.58
          (Kelvin)             80.13    82.79    91.85    97.69    99.97
                              105.55   112.33   123.03   125.69   129.06
                              133.10   140.16   147.48   153.02   158.40
                              164.98   172.22   177.93   183.78   192.34
                              203.33   204.79   209.41   210.77   214.24
                              224.20   226.44   229.36   236.23   240.58
                              247.21   251.03   259.30   264.46   267.11
                              269.77   279.96   289.77   296.48   302.51
                              312.31   318.84   330.93   347.93   359.23
                              361.05   368.59   373.73   377.19   385.47
                              397.12   400.49   410.67   415.34   416.54
                              431.13   434.76   444.42   447.10   451.72
                              458.58   463.19   482.90   490.43   496.24
                              510.83   528.22   533.78   559.19   573.84
                              580.36   587.45   590.14   593.05   600.75
                              607.66   613.93   617.72   622.25   630.46
                              655.14   657.66   661.63   669.23   678.29
                              684.09   742.95   746.68   805.77   809.97
                              852.57  1738.98  1745.77  3834.65  3861.76
                             3870.65  3894.65

 Zero-point correction=                           0.085072 (Hartree/Particle)
 Thermal correction to Energy=                    0.137495
 Thermal correction to Enthalpy=                  0.138439
 Thermal correction to Gibbs Free Energy=        -0.002857
 Sum of electronic and zero-point Energies=          -9439.065261
 Sum of electronic and thermal Energies=             -9439.012839
 Sum of electronic and thermal Enthalpies=           -9439.011895
 Sum of electronic and thermal Free Energies=        -9439.153190

                     E (Thermal)             CV                S
                      KCal/Mol        Cal/Mol-Kelvin    Cal/Mol-Kelvin
 Total                   86.279            170.952            297.382
 Electronic               0.000              0.000              0.000
 Translational            0.889              2.981             48.139
 Rotational               0.889              2.981             40.933
 Vibrational             84.502            164.990            208.310
 Vibration     1          0.593              1.984              5.901
 Vibration     2          0.594              1.982              5.469
 Vibration     3          0.595              1.980              5.123
 Vibration     4          0.595              1.979              4.982
 Vibration     5          0.595              1.978              4.827
 Vibration     6          0.596              1.975              4.604
 Vibration     7          0.596              1.974              4.540
 Vibration     8          0.597              1.972              4.335
 Vibration     9          0.598              1.970              4.213
 Vibration    10          0.598              1.969              4.168
 Vibration    11          0.599              1.967              4.061
 Vibration    12          0.599              1.964              3.939
 Vibration    13          0.601              1.959              3.760
 Vibration    14          0.601              1.958              3.718
 Vibration    15          0.602              1.956              3.667
 Vibration    16          0.602              1.955              3.606
 Vibration    17          0.603              1.951              3.505
 Vibration    18          0.605              1.947              3.406
 Vibration    19          0.605              1.944              3.334
 Vibration    20          0.606              1.941              3.267
 Vibration    21          0.608              1.937              3.188
 Vibration    22          0.609              1.933              3.105
 Vibration    23          0.610              1.929              3.042
 Vibration    24          0.611              1.925              2.980
 Vibration    25          0.613              1.920              2.892
 Vibration    26          0.615              1.912              2.786
 Vibration    27          0.616              1.911              2.772
 Vibration    28          0.617              1.907              2.730
 Vibration    29          0.617              1.906              2.717
 Vibration    30          0.618              1.904              2.686
 Vibration    31          0.620              1.896              2.600
 Vibration    32          0.621              1.894              2.581
 Vibration    33          0.621              1.892              2.557
 Vibration    34          0.623              1.886              2.501
 Vibration    35          0.624              1.883              2.467
 Vibration    36          0.626              1.877              2.415
 Vibration    37          0.627              1.874              2.387
 Vibration    38          0.629              1.867              2.326
 Vibration    39          0.631              1.862              2.289
 Vibration    40          0.632              1.859              2.271
 Vibration    41          0.632              1.857              2.252
 Vibration    42          0.635              1.847              2.184
 Vibration    43          0.638              1.838              2.120
 Vibration    44          0.641              1.831              2.078
 Vibration    45          0.642              1.825              2.041
 Vibration    46          0.646              1.815              1.983
 Vibration    47          0.648              1.808              1.946
 Vibration    48          0.652              1.795              1.879
 Vibration    49          0.658              1.776              1.789
 Vibration    50          0.662              1.763              1.733
 Vibration    51          0.663              1.761              1.724
 Vibration    52          0.666              1.752              1.688
 Vibration    53          0.668              1.746              1.663
 Vibration    54          0.669              1.742              1.647
 Vibration    55          0.673              1.732              1.610
 Vibration    56          0.678              1.718              1.558
 Vibration    57          0.679              1.714              1.544
 Vibration    58          0.683              1.701              1.501
 Vibration    59          0.685              1.695              1.482
 Vibration    60          0.686              1.693              1.477
 Vibration    61          0.692              1.674              1.419
 Vibration    62          0.694              1.670              1.405
 Vibration    63          0.698              1.657              1.368
 Vibration    64          0.700              1.653              1.358
 Vibration    65          0.702              1.647              1.341
 Vibration    66          0.705              1.638              1.317
 Vibration    67          0.707              1.631              1.300
 Vibration    68          0.717              1.604              1.233
 Vibration    69          0.720              1.594              1.208
 Vibration    70          0.723              1.586              1.189
 Vibration    71          0.731              1.565              1.144
 Vibration    72          0.740              1.540              1.092
 Vibration    73          0.743              1.532              1.076
 Vibration    74          0.757              1.494              1.005
 Vibration    75          0.765              1.473              0.967
 Vibration    76          0.769              1.463              0.950
 Vibration    77          0.773              1.452              0.933
 Vibration    78          0.774              1.448              0.926
 Vibration    79          0.776              1.444              0.919
 Vibration    80          0.781              1.432              0.900
 Vibration    81          0.785              1.422              0.884
 Vibration    82          0.788              1.412              0.869
 Vibration    83          0.791              1.406              0.861
 Vibration    84          0.793              1.399              0.851
 Vibration    85          0.798              1.387              0.832
 Vibration    86          0.814              1.349              0.780
 Vibration    87          0.815              1.345              0.775
 Vibration    88          0.818              1.339              0.767
 Vibration    89          0.823              1.327              0.751
 Vibration    90          0.828              1.313              0.734
 Vibration    91          0.832              1.304              0.722
 Vibration    92          0.871              1.214              0.618
 Vibration    93          0.874              1.208              0.612
 Vibration    94          0.916              1.118              0.524
 Vibration    95          0.919              1.111              0.518
 Vibration    96          0.950              1.048              0.463

                           ! Non-Optimized Parameters !
 Normal termination of Gaussian 16 at Mon Dec 12 11:10:27 2022.
