 Gaussian 16, Revision C.01,
 Gaussian 16:  ES64L-G16RevC.01  3-Jul-2019

 ---------------------------------------
 # opt freq b3lyp/gen nosymm pseudo=read
 ---------------------------------------

 -------------------
 Title Card Required
 -------------------
 Symbolic Z-matrix:
 Charge =  0 Multiplicity = 1

 SCF Done:  E(RB3LYP) =  -9437.89586015     A.U. after   46 cycles
 SCF Done:  E(RB3LYP) =  -9437.90932026     A.U. after   27 cycles
 SCF Done:  E(RB3LYP) =  -9437.91847299     A.U. after   27 cycles
 SCF Done:  E(RB3LYP) =  -9437.92129954     A.U. after   25 cycles
 SCF Done:  E(RB3LYP) =  -9437.92454360     A.U. after   27 cycles
 SCF Done:  E(RB3LYP) =  -9437.92606315     A.U. after   27 cycles
 SCF Done:  E(RB3LYP) =  -9437.92657949     A.U. after   26 cycles
 SCF Done:  E(RB3LYP) =  -9437.92567136     A.U. after   22 cycles
 SCF Done:  E(RB3LYP) =  -9437.93130415     A.U. after   26 cycles
 SCF Done:  E(RB3LYP) =  -9437.93676206     A.U. after   29 cycles
 SCF Done:  E(RB3LYP) =  -9437.94174656     A.U. after   21 cycles
 SCF Done:  E(RB3LYP) =  -9437.94178445     A.U. after   20 cycles
 SCF Done:  E(RB3LYP) =  -9437.94182829     A.U. after   22 cycles
 SCF Done:  E(RB3LYP) =  -9437.94184545     A.U. after   20 cycles
 SCF Done:  E(RB3LYP) =  -9437.94186362     A.U. after   20 cycles
 SCF Done:  E(RB3LYP) =  -9437.94188403     A.U. after   20 cycles
 SCF Done:  E(RB3LYP) =  -9437.94189416     A.U. after   19 cycles
 SCF Done:  E(RB3LYP) =  -9437.94189927     A.U. after   18 cycles
 SCF Done:  E(RB3LYP) =  -9437.94190055     A.U. after   16 cycles
 Optimization completed.
    -- Stationary point found.
 Normal termination of Gaussian 16 at Mon Dec 12 11:27:42 2022.

 ------------------------------------------------------------------
 #N Geom=AllCheck Guess=TCheck SCRF=Check GenChk RB3LYP/ChkBas Freq
 ------------------------------------------------------------------

 Structure from the checkpoint file:  "/localscratch/chegho/Gau-72788.chk"
 -------------------
 Title Card Required
 -------------------
 Charge =  0 Multiplicity = 1

                          Input orientation:
 ---------------------------------------------------------------------
 Center     Atomic      Atomic             Coordinates (Angstroms)
 Number     Number       Type             X           Y           Z
 ---------------------------------------------------------------------
      1         42           0        0.500013    2.107185   12.146660
      2         16           0        1.247901    4.262749   11.659302
      3         16           0       -1.542711    2.645304   13.186080
      4         16           0       -0.385288    1.067402   10.194931
      5         16           0        2.421011    0.567489   11.622783
      6         42           0       -2.063741    2.616390   10.891458
      7         16           0       -3.220367    1.647552    8.882913
      8         16           0       -1.487053    4.785579   10.256055
      9         42           0        0.400976    3.281629    9.561131
     10         16           0       -0.619722    2.642161    7.286303
     11         16           0        2.447678    2.045533    8.736353
     12         42           0        2.997149    2.923714   10.882788
     13         42           0       -2.360954    3.933079    8.289903
     14         16           0        4.428256    3.222418   12.916060
     15         16           0        4.242685    4.878565   10.150064
     16         16           0       -4.588597    4.944659    8.481633
     17         16           0       -2.033427    5.851385    6.779512
     18         42           0       -4.870336    3.038009    9.669031
     19         16           0       -6.804818    2.219445    9.382265
     20         16           0       -4.358350    3.365728   11.800132
     21         42           0        3.171958    1.488056   13.587040
     22         16           0        4.265041    0.122379   14.783111
     23         16           0        1.330591    2.226481   14.580627
     24         42           0       -0.002190    4.857334    6.792591
     25         16           0        0.569767    6.244861    4.866925
     26         16           0        1.149231    5.626642    8.671067
     27         42           0        3.065205    4.270607    8.313896
     28         16           0        2.062737    3.820172    5.953718
     29         16           0        4.610600    5.268342    6.865210
     30         42           0        2.537829    6.222530    6.071276
     31         16           0        3.525124    6.833213    4.042686
     32          1           0        4.832535    6.758087    4.378326
     33         16           0        2.551841    8.250025    7.317663
     34          1           0        3.250634    7.871498    8.408341
 ---------------------------------------------------------------------

 SCF Done:  E(RB3LYP) =  -9437.94190055     A.U. after    3 cycles

 Alpha  occ. eigenvalues --  -88.95831 -88.93927 -88.93520 -88.92819 -88.92714
 Alpha  occ. eigenvalues --  -88.92108 -88.92106 -88.92023 -88.91457 -88.91061
 Alpha  occ. eigenvalues --  -88.90609 -88.90462 -88.90144 -88.89763 -88.89711
 Alpha  occ. eigenvalues --  -88.89618 -88.89491 -88.89447 -88.89424 -88.89254
 Alpha  occ. eigenvalues --  -88.88517 -88.88414  -8.03130  -8.01270  -8.00841
 Alpha  occ. eigenvalues --   -8.00232  -8.00160  -7.99622  -7.99546  -7.99504
 Alpha  occ. eigenvalues --   -7.99020  -7.98511  -7.98175  -7.98038  -7.97705
 Alpha  occ. eigenvalues --   -7.97476  -7.97379  -7.97347  -7.97227  -7.97178
 Alpha  occ. eigenvalues --   -7.97011  -7.96977  -7.96411  -7.96299  -5.99223
 Alpha  occ. eigenvalues --   -5.99124  -5.98979  -5.97325  -5.97242  -5.97169
 Alpha  occ. eigenvalues --   -5.96880  -5.96820  -5.96752  -5.96287  -5.96228
 Alpha  occ. eigenvalues --   -5.96221  -5.96154  -5.96099  -5.96011  -5.95653
 Alpha  occ. eigenvalues --   -5.95608  -5.95568  -5.95533  -5.95531  -5.95522
 Alpha  occ. eigenvalues --   -5.95497  -5.95430  -5.95375  -5.95062  -5.95043
 Alpha  occ. eigenvalues --   -5.94835  -5.94632  -5.94476  -5.94324  -5.94297
 Alpha  occ. eigenvalues --   -5.94124  -5.94090  -5.93988  -5.93984  -5.93918
 Alpha  occ. eigenvalues --   -5.93781  -5.93742  -5.93624  -5.93567  -5.93472
 Alpha  occ. eigenvalues --   -5.93444  -5.93419  -5.93326  -5.93304  -5.93289
 Alpha  occ. eigenvalues --   -5.93283  -5.93277  -5.93260  -5.93170  -5.93139
 Alpha  occ. eigenvalues --   -5.93133  -5.93102  -5.93092  -5.93030  -5.92963
 Alpha  occ. eigenvalues --   -5.92939  -5.92903  -5.92809  -5.92680  -5.92397
 Alpha  occ. eigenvalues --   -5.92347  -5.92300  -5.92295  -5.92226  -5.92187
 Alpha  occ. eigenvalues --   -2.58249  -2.57670  -2.57651  -2.57546  -2.57194
 Alpha  occ. eigenvalues --   -2.55854  -2.55505  -2.55398  -2.55311  -2.54664
 Alpha  occ. eigenvalues --   -1.61061  -1.60579  -1.60462  -1.60351  -1.60282
 Alpha  occ. eigenvalues --   -1.60156  -1.60007  -1.59989  -1.59907  -1.59883
 Alpha  occ. eigenvalues --   -1.59640  -1.59535  -1.59486  -1.59144  -1.58945
 Alpha  occ. eigenvalues --   -1.58878  -1.58698  -1.58449  -1.58114  -1.58028
 Alpha  occ. eigenvalues --   -1.57789  -1.57551  -1.57490  -1.57281  -1.57111
 Alpha  occ. eigenvalues --   -1.56882  -1.56696  -1.56565  -1.56484  -1.56440
 Alpha  occ. eigenvalues --   -0.79343  -0.77192  -0.76421  -0.76093  -0.75681
 Alpha  occ. eigenvalues --   -0.75418  -0.74962  -0.74369  -0.74348  -0.74253
 Alpha  occ. eigenvalues --   -0.73867  -0.73174  -0.72698  -0.72324  -0.72255
 Alpha  occ. eigenvalues --   -0.71867  -0.71548  -0.71517  -0.71150  -0.70677
 Alpha  occ. eigenvalues --   -0.69707  -0.69602  -0.46918  -0.45894  -0.45610
 Alpha  occ. eigenvalues --   -0.45049  -0.44827  -0.44491  -0.43563  -0.43367
 Alpha  occ. eigenvalues --   -0.43149  -0.42940  -0.42234  -0.42209  -0.42095
 Alpha  occ. eigenvalues --   -0.41790  -0.41506  -0.41284  -0.40513  -0.40334
 Alpha  occ. eigenvalues --   -0.39745  -0.39725  -0.39579  -0.39410  -0.39184
 Alpha  occ. eigenvalues --   -0.38963  -0.38639  -0.38492  -0.38190  -0.37982
 Alpha  occ. eigenvalues --   -0.37932  -0.37654  -0.37320  -0.37043  -0.36887
 Alpha  occ. eigenvalues --   -0.36645  -0.36564  -0.36441  -0.36007  -0.35953
 Alpha  occ. eigenvalues --   -0.35875  -0.35701  -0.35520  -0.35220  -0.34960
 Alpha  occ. eigenvalues --   -0.34872  -0.34671  -0.34228  -0.33989  -0.33634
 Alpha  occ. eigenvalues --   -0.33551  -0.33090  -0.32875  -0.32477  -0.32298
 Alpha  occ. eigenvalues --   -0.32089  -0.31565  -0.31250  -0.31091  -0.30879
 Alpha  occ. eigenvalues --   -0.30482  -0.30218  -0.30012  -0.29443  -0.29203
 Alpha  occ. eigenvalues --   -0.28998  -0.28375  -0.28091  -0.27619  -0.27045
 Alpha  occ. eigenvalues --   -0.26804  -0.26469  -0.26205  -0.25835  -0.25160
 Alpha  occ. eigenvalues --   -0.24165  -0.23905
 Alpha virt. eigenvalues --   -0.19315  -0.17957  -0.17531  -0.16646  -0.16347
 Alpha virt. eigenvalues --   -0.15997  -0.15739  -0.15578  -0.15195  -0.14924
 Alpha virt. eigenvalues --   -0.14499  -0.14232  -0.13912  -0.13769  -0.13580

 Mulliken charges:
               1
     1  Mo  -0.222366
     2  S    0.373257
     3  S    0.047860
     4  S    0.215782
     5  S    0.085410
     6  Mo  -0.199695
     7  S    0.098220
     8  S    0.313674
     9  Mo  -0.799429
    10  S    0.145204
    11  S    0.162372
    12  Mo  -0.287935
    13  Mo  -0.231303
    14  S   -0.020641
    15  S    0.095341
    16  S    0.007683
    17  S    0.068509
    18  Mo   0.284054
    19  S   -0.197803
    20  S   -0.019354
    21  Mo   0.293396
    22  S   -0.192707
    23  S   -0.018982
    24  Mo  -0.139272
    25  S    0.144034
    26  S    0.209694
    27  Mo  -0.247254
    28  S    0.273666
    29  S    0.107690
    30  Mo  -0.597517
    31  S    0.049151
    32  H    0.090597
    33  S    0.013065
    34  H    0.095600
 Sum of Mulliken charges =  -0.00000

 Dipole moment (field-independent basis, Debye):
    X=              2.1479    Y=             -0.4901    Z=             -1.3430  Tot=              2.5802
 Quadrupole moment (field-independent basis, Debye-Ang):
   XX=           -525.0357   YY=           -524.7118   ZZ=           -562.4231
   XY=             12.7700   XZ=             14.6016   YZ=             -1.7350

  Exact polarizability:    1186.800      62.644     692.078      31.010    -309.671    1014.530
 Approx polarizability:    3951.596     166.432    2277.746     107.169    -861.971    3429.321

                      1                      2                      3
                      A                      A                      A
 Frequencies --     30.5826                37.7042                40.1088
 Red. masses --     23.6308                38.0720                29.6953
 Frc consts  --      0.0130                 0.0319                 0.0281
 IR Inten    --      1.6164                 1.4895                 0.7568

                      4                      5                      6
                      A                      A                      A
 Frequencies --     43.9241                52.0464                59.6375
 Red. masses --     40.2215                35.3600                29.6696
 Frc consts  --      0.0457                 0.0564                 0.0622
 IR Inten    --      0.2106                 0.5611                 1.0004

                      7                      8                      9
                      A                      A                      A
 Frequencies --     61.5965                71.1351                76.3240
 Red. masses --     36.8242                32.7969                29.6897
 Frc consts  --      0.0823                 0.0978                 0.1019
 IR Inten    --      1.6554                 1.0824                 0.0795

                     10                     11                     12
                      A                      A                      A
 Frequencies --     80.6955                82.8599                87.5848
 Red. masses --     37.6299                28.2966                33.8780
 Frc consts  --      0.1444                 0.1145                 0.1531
 IR Inten    --      0.4398                 1.3517                 1.5513

                     13                     14                     15
                      A                      A                      A
 Frequencies --     89.1774                92.2111                98.9783
 Red. masses --     38.1312                32.6386                39.0184
 Frc consts  --      0.1787                 0.1635                 0.2252
 IR Inten    --      0.1949                 1.1763                 3.3545

                     16                     17                     18
                      A                      A                      A
 Frequencies --    102.4680               109.0473               111.6158
 Red. masses --     35.2743                30.7936                42.9312
 Frc consts  --      0.2182                 0.2157                 0.3151
 IR Inten    --      3.1946                 0.6352                 0.4180

                     19                     20                     21
                      A                      A                      A
 Frequencies --    116.0362               118.6466               119.3843
 Red. masses --     39.7922                41.1948                25.5640
 Frc consts  --      0.3157                 0.3417                 0.2147
 IR Inten    --      1.5179                 0.2551                 1.0779

                     22                     23                     24
                      A                      A                      A
 Frequencies --    125.1547               127.6678               132.7824
 Red. masses --     48.7082                36.4745                34.5687
 Frc consts  --      0.4495                 0.3503                 0.3591
 IR Inten    --      0.2455                 0.8031                 1.3124

                     25                     26                     27
                      A                      A                      A
 Frequencies --    140.1902               142.8027               147.2424
 Red. masses --     45.3455                46.2501                40.0745
 Frc consts  --      0.5251                 0.5557                 0.5119
 IR Inten    --      0.5278                 0.6872                 1.9516

                     28                     29                     30
                      A                      A                      A
 Frequencies --    147.9070               154.8704               157.4592
 Red. masses --     39.9296                35.7759                43.2230
 Frc consts  --      0.5147                 0.5056                 0.6314
 IR Inten    --      2.5271                 0.1530                 0.2128

                     31                     32                     33
                      A                      A                      A
 Frequencies --    159.0668               163.2576               166.1240
 Red. masses --     35.3116                34.8662                40.4261
 Frc consts  --      0.5264                 0.5475                 0.6573
 IR Inten    --      1.1582                 2.8370                 0.8774

                     34                     35                     36
                      A                      A                      A
 Frequencies --    168.4083               169.9547               172.6562
 Red. masses --     47.9131                50.3462                48.5255
 Frc consts  --      0.8006                 0.8568                 0.8523
 IR Inten    --      0.3719                 1.1115                 0.7047

                     37                     38                     39
                      A                      A                      A
 Frequencies --    178.0214               185.2795               189.8461
 Red. masses --     44.9517                37.3747                36.2137
 Frc consts  --      0.8393                 0.7559                 0.7690
 IR Inten    --      1.4210                 8.3572                 4.5303

                     40                     41                     42
                      A                      A                      A
 Frequencies --    199.3196               201.6836               204.9318
 Red. masses --     41.7867                50.9057                36.5693
 Frc consts  --      0.9781                 1.2200                 0.9049
 IR Inten    --      9.9802                 0.2250                 0.3617

                     43                     44                     45
                      A                      A                      A
 Frequencies --    216.6360               226.5227               229.9262
 Red. masses --     33.3182                33.6409                 9.6045
 Frc consts  --      0.9213                 1.0170                 0.2992
 IR Inten    --      0.8226                 0.1643                 2.0580

                     46                     47                     48
                      A                      A                      A
 Frequencies --    231.9269               241.2710               244.2800
 Red. masses --     28.8703                32.8416                12.5240
 Frc consts  --      0.9150                 1.1264                 0.4403
 IR Inten    --      3.0503                 1.9816                 0.5097

                     49                     50                     51
                      A                      A                      A
 Frequencies --    250.1717               253.9788               255.5831
 Red. masses --     27.4863                11.0589                36.7510
 Frc consts  --      1.0135                 0.4203                 1.4144
 IR Inten    --      1.5979                 2.1004                 0.0464

                     52                     53                     54
                      A                      A                      A
 Frequencies --    264.6284               267.0324               273.8024
 Red. masses --     19.2463                10.7948                24.4738
 Frc consts  --      0.7941                 0.4535                 1.0810
 IR Inten    --      0.1803                 1.0519                 2.2793

                     55                     56                     57
                      A                      A                      A
 Frequencies --    283.3108               289.9338               293.2112
 Red. masses --      6.8586                 3.5428                34.0828
 Frc consts  --      0.3243                 0.1755                 1.7264
 IR Inten    --      3.6740                 0.4667                 1.3042

                     58                     59                     60
                      A                      A                      A
 Frequencies --    295.1043               306.7884               307.6865
 Red. masses --     21.9056                22.3384                23.1156
 Frc consts  --      1.1240                 1.2387                 1.2894
 IR Inten    --      7.4945                 8.8075                 0.9146

                     61                     62                     63
                      A                      A                      A
 Frequencies --    313.8660               315.5334               326.7424
 Red. masses --     36.4198                31.8828                36.4679
 Frc consts  --      2.1139                 1.8702                 2.2939
 IR Inten    --      0.4481                 5.6460                 1.7426

                     64                     65                     66
                      A                      A                      A
 Frequencies --    327.0690               337.6640               342.5638
 Red. masses --     36.4307                 9.7518                29.1229
 Frc consts  --      2.2961                 0.6551                 2.0136
 IR Inten    --      0.2170                23.6237                 5.2940

                     67                     68                     69
                      A                      A                      A
 Frequencies --    346.9089               347.4381               356.8771
 Red. masses --     18.2196                12.3009                21.7453
 Frc consts  --      1.2919                 0.8749                 1.6317
 IR Inten    --      3.1505                 2.7104                 2.3520

                     70                     71                     72
                      A                      A                      A
 Frequencies --    365.7371               369.1103               374.9094
 Red. masses --     32.4237                21.2036                35.2006
 Frc consts  --      2.5553                 1.7020                 2.9151
 IR Inten    --      0.5327                25.6904                 0.7471

                     73                     74                     75
                      A                      A                      A
 Frequencies --    383.5101               391.8524               400.7639
 Red. masses --      1.2163                10.8393                26.7271
 Frc consts  --      0.1054                 0.9806                 2.5292
 IR Inten    --     17.2387                 1.4453                 3.4817

                     76                     77                     78
                      A                      A                      A
 Frequencies --    408.7030               411.7513               415.5359
 Red. masses --     33.0109                18.0990                35.6254
 Frc consts  --      3.2488                 1.8079                 3.6243
 IR Inten    --      3.9611                16.1133                 1.7613

                     79                     80                     81
                      A                      A                      A
 Frequencies --    418.8238               422.9604               429.8797
 Red. masses --     32.1083                36.5813                34.9491
 Frc consts  --      3.3184                 3.8557                 3.8052
 IR Inten    --      0.2103                 1.5983                 1.2528

                     82                     83                     84
                      A                      A                      A
 Frequencies --    432.6051               434.1063               435.8862
 Red. masses --     36.5996                33.4390                35.5275
 Frc consts  --      4.0356                 3.7128                 3.9771
 IR Inten    --      5.8642                 7.4974                 1.6402

                     85                     86                     87
                      A                      A                      A
 Frequencies --    438.7244               449.1210               463.5712
 Red. masses --     33.5797                38.5957                39.0397
 Frc consts  --      3.8081                 4.5869                 4.9430
 IR Inten    --      3.7724                 1.1588                14.5928

                     88                     89                     90
                      A                      A                      A
 Frequencies --    466.5725               470.3255               477.1758
 Red. masses --     39.8075                39.0183                39.7039
 Frc consts  --      5.1057                 5.0853                 5.3265
 IR Inten    --     22.6729                 1.4440                17.3474

                     91                     92                     93
                      A                      A                      A
 Frequencies --    563.1414               564.9231               636.1878
 Red. masses --     39.9540                39.9716                 1.0557
 Frc consts  --      7.4653                 7.5159                 0.2518
 IR Inten    --    272.1774               133.6478                14.7725

                     94                     95                     96
                      A                      A                      A
 Frequencies --    754.1742              2656.9308              2676.9428
 Red. masses --      1.0492                 1.0385                 1.0382
 Frc consts  --      0.3516                 4.3193                 4.3835
 IR Inten    --      6.8632                 1.1886                 1.2902

 - Thermochemistry -
 -------------------
 Temperature   298.150 Kelvin.  Pressure   1.00000 Atm.
 Atom     1 has atomic number 42 and mass  97.90550

 Molecular mass:  1684.45623 amu.
 Principal axes and moments of inertia in atomic units:
                           1         2         3
     Eigenvalues --  ******************************
           X           -0.07698   0.99308  -0.08869
           Y           -0.51687   0.03632   0.85529
           Z            0.85260   0.11168   0.51050
 This molecule is an asymmetric top.
 Rotational symmetry number  1.
 Warning -- assumption of classical behavior for rotation
           may cause significant error
 Rotational temperatures (Kelvin)      0.00160     0.00156     0.00087
 Rotational constants (GHZ):           0.03335     0.03255     0.01813
 Zero-point vibrational energy     176908.4 (Joules/Mol)
                                   42.28212 (Kcal/Mol)
 Warning -- explicit consideration of  92 degrees of freedom as
           vibrations may cause significant error
 Vibrational temperatures:     44.00    54.25    57.71    63.20    74.88
          (Kelvin)             85.81    88.62   102.35   109.81   116.10
                              119.22   126.01   128.31   132.67   142.41
                              147.43   156.89   160.59   166.95   170.71
                              171.77   180.07   183.69   191.04   201.70
                              205.46   211.85   212.81   222.82   226.55
                              228.86   234.89   239.02   242.30   244.53
                              248.41   256.13   266.58   273.15   286.78
                              290.18   294.85   311.69   325.92   330.81
                              333.69   347.14   351.46   359.94   365.42
                              367.73   380.74   384.20   393.94   407.62
                              417.15   421.87   424.59   441.40   442.69
                              451.58   453.98   470.11   470.58   485.82
                              492.87   499.12   499.89   513.47   526.21
                              531.07   539.41   551.79   563.79   576.61
                              588.03   592.42   597.86   602.59   608.55
                              618.50   622.42   624.58   627.14   631.23
                              646.18   666.98   671.29   676.69   686.55
                              810.23   812.80   915.33  1085.09  3822.73
                             3851.52

 Zero-point correction=                           0.067381 (Hartree/Particle)
 Thermal correction to Energy=                    0.118073
 Thermal correction to Enthalpy=                  0.119018
 Thermal correction to Gibbs Free Energy=        -0.017928
 Sum of electronic and zero-point Energies=          -9437.874520
 Sum of electronic and thermal Energies=             -9437.823827
 Sum of electronic and thermal Enthalpies=           -9437.822883
 Sum of electronic and thermal Free Energies=        -9437.959829

                     E (Thermal)             CV                S
                      KCal/Mol        Cal/Mol-Kelvin    Cal/Mol-Kelvin
 Total                   74.092            166.229            288.227
 Electronic               0.000              0.000              0.000
 Translational            0.889              2.981             48.136
 Rotational               0.889              2.981             40.920
 Vibrational             72.315            160.267            199.171
 Vibration     1          0.594              1.984              5.791
 Vibration     2          0.594              1.982              5.376
 Vibration     3          0.594              1.981              5.254
 Vibration     4          0.595              1.980              5.074
 Vibration     5          0.596              1.977              4.738
 Vibration     6          0.597              1.974              4.469
 Vibration     7          0.597              1.973              4.405
 Vibration     8          0.598              1.968              4.122
 Vibration     9          0.599              1.965              3.983
 Vibration    10          0.600              1.962              3.874
 Vibration    11          0.600              1.961              3.822
 Vibration    12          0.601              1.958              3.713
 Vibration    13          0.602              1.957              3.678
 Vibration    14          0.602              1.955              3.613
 Vibration    15          0.604              1.950              3.474
 Vibration    16          0.605              1.947              3.407
 Vibration    17          0.606              1.942              3.286
 Vibration    18          0.607              1.940              3.241
 Vibration    19          0.608              1.936              3.165
 Vibration    20          0.609              1.934              3.122
 Vibration    21          0.609              1.933              3.110
 Vibration    22          0.610              1.928              3.019
 Vibration    23          0.611              1.926              2.981
 Vibration    24          0.613              1.921              2.905
 Vibration    25          0.615              1.913              2.801
 Vibration    26          0.616              1.910              2.766
 Vibration    27          0.617              1.906              2.708
 Vibration    28          0.617              1.905              2.699
 Vibration    29          0.620              1.897              2.612
 Vibration    30          0.621              1.894              2.580
 Vibration    31          0.621              1.892              2.561
 Vibration    32          0.623              1.888              2.512
 Vibration    33          0.624              1.884              2.479
 Vibration    34          0.625              1.881              2.453
 Vibration    35          0.625              1.879              2.436
 Vibration    36          0.626              1.876              2.406
 Vibration    37          0.628              1.869              2.349
 Vibration    38          0.631              1.860              2.275
 Vibration    39          0.633              1.854              2.229
 Vibration    40          0.637              1.841              2.139
 Vibration    41          0.639              1.838              2.118
 Vibration    42          0.640              1.833              2.088
 Vibration    43          0.645              1.816              1.987
 Vibration    44          0.650              1.801              1.906
 Vibration    45          0.652              1.795              1.880
 Vibration    46          0.653              1.792              1.864
 Vibration    47          0.658              1.777              1.793
 Vibration    48          0.660              1.772              1.771
 Vibration    49          0.663              1.762              1.729
 Vibration    50          0.665              1.756              1.703
 Vibration    51          0.666              1.753              1.692
 Vibration    52          0.671              1.738              1.631
 Vibration    53          0.672              1.734              1.615
 Vibration    54          0.676              1.722              1.572
 Vibration    55          0.682              1.705              1.514
 Vibration    56          0.686              1.692              1.474
 Vibration    57          0.688              1.686              1.455
 Vibration    58          0.689              1.683              1.445
 Vibration    59          0.697              1.661              1.380
 Vibration    60          0.698              1.659              1.375
 Vibration    61          0.702              1.647              1.342
 Vibration    62          0.703              1.644              1.333
 Vibration    63          0.710              1.622              1.276
 Vibration    64          0.711              1.621              1.275
 Vibration    65          0.718              1.600              1.223
 Vibration    66          0.722              1.590              1.200
 Vibration    67          0.725              1.582              1.180
 Vibration    68          0.725              1.580              1.178
 Vibration    69          0.732              1.561              1.136
 Vibration    70          0.739              1.543              1.098
 Vibration    71          0.741              1.536              1.083
 Vibration    72          0.746              1.524              1.060
 Vibration    73          0.753              1.505              1.025
 Vibration    74          0.759              1.488              0.993
 Vibration    75          0.767              1.468              0.960
 Vibration    76          0.773              1.451              0.931
 Vibration    77          0.776              1.445              0.920
 Vibration    78          0.779              1.436              0.907
 Vibration    79          0.782              1.429              0.896
 Vibration    80          0.785              1.420              0.882
 Vibration    81          0.791              1.405              0.859
 Vibration    82          0.793              1.399              0.850
 Vibration    83          0.795              1.396              0.845
 Vibration    84          0.796              1.392              0.840
 Vibration    85          0.799              1.386              0.831
 Vibration    86          0.808              1.363              0.798
 Vibration    87          0.821              1.331              0.756
 Vibration    88          0.824              1.324              0.747
 Vibration    89          0.827              1.316              0.737
 Vibration    90          0.834              1.301              0.718
 Vibration    91          0.919              1.111              0.518
 Vibration    92          0.921              1.107              0.514

                           ! Non-Optimized Parameters !
 Normal termination of Gaussian 16 at Mon Dec 12 11:45:58 2022.
