 Gaussian 16, Revision C.01,
 Gaussian 16:  ES64L-G16RevC.01  3-Jul-2019

 -----------------------------------------------------------
 # opt=(calcfc,ts,noeigen) freq b3lyp/gen nosymm pseudo=read
 -----------------------------------------------------------

 -------------------
 Title Card Required
 -------------------
 Symbolic Z-matrix:
 Charge =  0 Multiplicity = 1

 SCF Done:  E(RB3LYP) =  -9437.86902577     A.U. after   35 cycles
 SCF Done:  E(RB3LYP) =  -9437.88217350     A.U. after   24 cycles
 SCF Done:  E(RB3LYP) =  -9437.89160839     A.U. after   23 cycles
 SCF Done:  E(RB3LYP) =  -9437.89428821     A.U. after   23 cycles
 SCF Done:  E(RB3LYP) =  -9437.89512611     A.U. after   22 cycles
 SCF Done:  E(RB3LYP) =  -9437.89633194     A.U. after   23 cycles
 SCF Done:  E(RB3LYP) =  -9437.89701982     A.U. after   22 cycles
 SCF Done:  E(RB3LYP) =  -9437.89709775     A.U. after   21 cycles
 SCF Done:  E(RB3LYP) =  -9437.89685450     A.U. after   21 cycles
 SCF Done:  E(RB3LYP) =  -9437.89576984     A.U. after   23 cycles
 SCF Done:  E(RB3LYP) =  -9437.89797340     A.U. after   21 cycles
 SCF Done:  E(RB3LYP) =  -9437.89796105     A.U. after   21 cycles
 SCF Done:  E(RB3LYP) =  -9437.89724080     A.U. after   22 cycles
 SCF Done:  E(RB3LYP) =  -9437.89783680     A.U. after   20 cycles
 SCF Done:  E(RB3LYP) =  -9437.89773296     A.U. after   23 cycles
 SCF Done:  E(RB3LYP) =  -9437.89799054     A.U. after   20 cycles
 SCF Done:  E(RB3LYP) =  -9437.89799363     A.U. after   18 cycles
 SCF Done:  E(RB3LYP) =  -9437.89799409     A.U. after   16 cycles
 SCF Done:  E(RB3LYP) =  -9437.89799451     A.U. after   15 cycles
 Optimization completed.
    -- Stationary point found.
 Normal termination of Gaussian 16 at Tue Dec 13 10:10:59 2022.

 ------------------------------------------------------------------
 #N Geom=AllCheck Guess=TCheck SCRF=Check GenChk RB3LYP/ChkBas Freq
 ------------------------------------------------------------------

 Structure from the checkpoint file:  "/localscratch/chegho/Gau-3523.chk"
 -------------------
 Title Card Required
 -------------------
 Charge =  0 Multiplicity = 1

                          Input orientation:
 ---------------------------------------------------------------------
 Center     Atomic      Atomic             Coordinates (Angstroms)
 Number     Number       Type             X           Y           Z
 ---------------------------------------------------------------------
      1         42           0        0.376587    1.874495   12.252207
      2         16           0        1.190984    4.025402   11.924600
      3         16           0       -1.697928    2.323616   13.280710
      4         16           0       -0.446304    1.005283   10.187490
      5         16           0        2.295338    0.358631   11.576049
      6         42           0       -2.158156    2.452587   10.977112
      7         16           0       -3.247601    1.639110    8.856497
      8         16           0       -1.578179    4.673909   10.600036
      9         42           0        0.288867    3.311818    9.690314
     10         16           0       -0.580452    2.758768    7.403588
     11         16           0        2.362330    2.101346    8.886897
     12         42           0        2.932369    2.738554   11.105731
     13         42           0       -2.332037    3.972051    8.511364
     14         16           0        4.317279    2.845412   13.170830
     15         16           0        4.528897    4.401609   10.379040
     16         16           0       -4.602814    4.953089    8.746801
     17         16           0       -1.837443    6.178567    7.581911
     18         42           0       -4.938479    2.940028    9.691628
     19         16           0       -6.867203    2.171809    9.272160
     20         16           0       -4.493509    3.055210   11.866081
     21         42           0        3.000018    1.082309   13.633278
     22         16           0        4.048561   -0.421125   14.696436
     23         16           0        1.139055    1.750425   14.668455
     24         42           0        0.044781    4.992357    7.222828
     25         16           0        0.591790    6.066607    5.255829
     26         16           0        1.149267    5.678631    9.200550
     27         42           0        3.010570    4.375261    8.654541
     28         16           0        2.428895    3.961733    6.382495
     29         16           0        4.504142    5.907756    7.586380
     30         42           0        2.970461    6.452836    5.846487
     31         16           0        4.071022    6.537554    3.997311
     32          1           0        4.136211    8.216626    3.870300
     33         16           0        2.910643    8.642626    5.929776
     34          1           0        3.753247    8.881318    4.502122
 ---------------------------------------------------------------------

 SCF Done:  E(RB3LYP) =  -9437.89799451     A.U. after    3 cycles

 Alpha  occ. eigenvalues --  -88.94865 -88.94655 -88.94343 -88.93573 -88.92832
 Alpha  occ. eigenvalues --  -88.92790 -88.92724 -88.92549 -88.91611 -88.90625
 Alpha  occ. eigenvalues --  -88.90202 -88.90174 -88.90142 -88.90130 -88.90089
 Alpha  occ. eigenvalues --  -88.90082 -88.90030 -88.89498 -88.89120 -88.88887
 Alpha  occ. eigenvalues --  -88.88596 -88.88415  -8.02310  -8.01995  -8.01656
 Alpha  occ. eigenvalues --   -8.00951  -8.00240  -8.00218  -8.00216  -8.00057
 Alpha  occ. eigenvalues --   -7.99203  -7.98280  -7.97868  -7.97860  -7.97809
 Alpha  occ. eigenvalues --   -7.97802  -7.97777  -7.97567  -7.97563  -7.97247
 Alpha  occ. eigenvalues --   -7.97011  -7.96770  -7.96342  -7.96104  -5.98337
 Alpha  occ. eigenvalues --   -5.98308  -5.98190  -5.98056  -5.97962  -5.97892
 Alpha  occ. eigenvalues --   -5.97696  -5.97636  -5.97565  -5.97010  -5.96942
 Alpha  occ. eigenvalues --   -5.96824  -5.96279  -5.96261  -5.96252  -5.96239
 Alpha  occ. eigenvalues --   -5.96229  -5.96218  -5.96121  -5.96082  -5.96078
 Alpha  occ. eigenvalues --   -5.96064  -5.96047  -5.95932  -5.95242  -5.95205
 Alpha  occ. eigenvalues --   -5.95033  -5.94319  -5.94225  -5.94162  -5.93963
 Alpha  occ. eigenvalues --   -5.93961  -5.93910  -5.93904  -5.93896  -5.93815
 Alpha  occ. eigenvalues --   -5.93810  -5.93764  -5.93762  -5.93753  -5.93703
 Alpha  occ. eigenvalues --   -5.93701  -5.93678  -5.93647  -5.93604  -5.93603
 Alpha  occ. eigenvalues --   -5.93596  -5.93515  -5.93486  -5.93389  -5.93338
 Alpha  occ. eigenvalues --   -5.93325  -5.93136  -5.93113  -5.92995  -5.92944
 Alpha  occ. eigenvalues --   -5.92902  -5.92759  -5.92696  -5.92668  -5.92455
 Alpha  occ. eigenvalues --   -5.92309  -5.92208  -5.92099  -5.92052  -5.91907
 Alpha  occ. eigenvalues --   -2.58736  -2.58266  -2.58051  -2.57845  -2.56474
 Alpha  occ. eigenvalues --   -2.56345  -2.56213  -2.56008  -2.55119  -2.55040
 Alpha  occ. eigenvalues --   -1.61533  -1.61092  -1.60931  -1.60821  -1.60691
 Alpha  occ. eigenvalues --   -1.60605  -1.60482  -1.60459  -1.60235  -1.60007
 Alpha  occ. eigenvalues --   -1.59882  -1.59778  -1.59647  -1.59621  -1.59273
 Alpha  occ. eigenvalues --   -1.58741  -1.58568  -1.58444  -1.58298  -1.58281
 Alpha  occ. eigenvalues --   -1.58152  -1.58135  -1.57801  -1.57430  -1.57354
 Alpha  occ. eigenvalues --   -1.57288  -1.57191  -1.57121  -1.56799  -1.56596
 Alpha  occ. eigenvalues --   -0.79306  -0.77113  -0.76750  -0.76542  -0.76110
 Alpha  occ. eigenvalues --   -0.75884  -0.74878  -0.74658  -0.74297  -0.73476
 Alpha  occ. eigenvalues --   -0.73036  -0.72928  -0.72749  -0.72637  -0.72109
 Alpha  occ. eigenvalues --   -0.71957  -0.71268  -0.70902  -0.70301  -0.70265
 Alpha  occ. eigenvalues --   -0.70054  -0.69925  -0.47984  -0.46653  -0.46106
 Alpha  occ. eigenvalues --   -0.45873  -0.45149  -0.43797  -0.43541  -0.43344
 Alpha  occ. eigenvalues --   -0.43250  -0.42681  -0.42509  -0.42292  -0.42237
 Alpha  occ. eigenvalues --   -0.41661  -0.41243  -0.40807  -0.40702  -0.40134
 Alpha  occ. eigenvalues --   -0.40019  -0.39902  -0.39678  -0.39403  -0.39196
 Alpha  occ. eigenvalues --   -0.39075  -0.38743  -0.38592  -0.38410  -0.38241
 Alpha  occ. eigenvalues --   -0.38031  -0.37426  -0.37415  -0.37157  -0.37024
 Alpha  occ. eigenvalues --   -0.36946  -0.36820  -0.36547  -0.36515  -0.36321
 Alpha  occ. eigenvalues --   -0.36179  -0.35935  -0.35598  -0.35449  -0.35205
 Alpha  occ. eigenvalues --   -0.34996  -0.34463  -0.34360  -0.34309  -0.33790
 Alpha  occ. eigenvalues --   -0.33533  -0.33134  -0.32911  -0.32609  -0.32288
 Alpha  occ. eigenvalues --   -0.31991  -0.31739  -0.31180  -0.31058  -0.30913
 Alpha  occ. eigenvalues --   -0.30453  -0.30438  -0.29906  -0.29870  -0.29420
 Alpha  occ. eigenvalues --   -0.29114  -0.29005  -0.27954  -0.27581  -0.27298
 Alpha  occ. eigenvalues --   -0.26766  -0.26576  -0.26410  -0.25921  -0.25198
 Alpha  occ. eigenvalues --   -0.25071  -0.24492
 Alpha virt. eigenvalues --   -0.19075  -0.18400  -0.17725  -0.17449  -0.16775
 Alpha virt. eigenvalues --   -0.16240  -0.15933  -0.15837  -0.15367  -0.15015
 Alpha virt. eigenvalues --   -0.14592  -0.14587  -0.14276  -0.13652  -0.13318

 Mulliken charges:
               1
     1  Mo  -0.205573
     2  S    0.322937
     3  S    0.058748
     4  S    0.210478
     5  S    0.104272
     6  Mo  -0.225176
     7  S    0.094712
     8  S    0.379030
     9  Mo  -0.881979
    10  S    0.209765
    11  S    0.206077
    12  Mo  -0.255844
    13  Mo  -0.307564
    14  S    0.011396
    15  S    0.080226
    16  S   -0.004677
    17  S    0.111402
    18  Mo   0.292746
    19  S   -0.186222
    20  S   -0.010989
    21  Mo   0.280721
    22  S   -0.190240
    23  S   -0.007818
    24  Mo  -0.155763
    25  S    0.058415
    26  S    0.193222
    27  Mo  -0.193147
    28  S    0.155887
    29  S    0.056991
    30  Mo  -0.126499
    31  S   -0.041262
    32  H   -0.008686
    33  S   -0.024116
    34  H   -0.001471
 Sum of Mulliken charges =  -0.00000

 Dipole moment (field-independent basis, Debye):
    X=             -1.4181    Y=             -1.5285    Z=             -0.5600  Tot=              2.1589
 Quadrupole moment (field-independent basis, Debye-Ang):
   XX=           -537.3228   YY=           -534.4680   ZZ=           -541.4983
   XY=             -8.3243   XZ=             -9.5421   YZ=            -10.7826

  Exact polarizability:    1185.814      77.386     764.062      -3.823    -373.662    1018.495
 Approx polarizability:    3715.578     154.163    2508.291      10.444   -1047.326    3398.833

 ******    1 imaginary frequencies (negative Signs) ******

                      1                      2                      3
                      A                      A                      A
 Frequencies --  -1216.8323                19.9347                34.1532
 Red. masses --      1.0942                15.9384                33.5231
 Frc consts  --      0.9546                 0.0037                 0.0230
 IR Inten    --    294.1654                 0.0233                 0.3403

                      4                      5                      6
                      A                      A                      A
 Frequencies --     41.3594                43.3178                51.4677
 Red. masses --     31.0620                33.0493                38.8801
 Frc consts  --      0.0313                 0.0365                 0.0607
 IR Inten    --      0.8336                 0.3099                 0.0540

                      7                      8                      9
                      A                      A                      A
 Frequencies --     60.4773                62.5129                63.9870
 Red. masses --     40.0943                30.3077                35.0128
 Frc consts  --      0.0864                 0.0698                 0.0845
 IR Inten    --      0.0305                 0.5585                 1.1501

                     10                     11                     12
                      A                      A                      A
 Frequencies --     74.5373                77.4413                78.3382
 Red. masses --     40.8159                39.4741                41.4297
 Frc consts  --      0.1336                 0.1395                 0.1498
 IR Inten    --      1.2506                 0.8577                 0.0766

                     13                     14                     15
                      A                      A                      A
 Frequencies --     84.7331                87.9784                91.1804
 Red. masses --     37.3391                35.7512                35.5332
 Frc consts  --      0.1580                 0.1630                 0.1741
 IR Inten    --      0.9966                 0.4972                 1.9533

                     16                     17                     18
                      A                      A                      A
 Frequencies --    100.4393               102.0515               107.4138
 Red. masses --     18.9482                23.4442                38.3806
 Frc consts  --      0.1126                 0.1439                 0.2609
 IR Inten    --      0.6777                 0.3187                 1.2216

                     19                     20                     21
                      A                      A                      A
 Frequencies --    111.8250               115.6989               117.3479
 Red. masses --     44.4216                39.0452                36.3275
 Frc consts  --      0.3273                 0.3079                 0.2947
 IR Inten    --      1.0060                 1.1934                 0.2029

                     22                     23                     24
                      A                      A                      A
 Frequencies --    121.5856               125.0935               129.5038
 Red. masses --     50.1344                45.2065                40.5920
 Frc consts  --      0.4367                 0.4168                 0.4011
 IR Inten    --      3.8785                 1.9472                 7.4646

                     25                     26                     27
                      A                      A                      A
 Frequencies --    133.1426               136.9522               137.5689
 Red. masses --     48.9256                49.3358                43.2461
 Frc consts  --      0.5110                 0.5452                 0.4822
 IR Inten    --      6.6390                 9.1847                 9.9971

                     28                     29                     30
                      A                      A                      A
 Frequencies --    141.9027               146.8326               148.6863
 Red. masses --     47.2508                43.5147                39.3107
 Frc consts  --      0.5606                 0.5528                 0.5120
 IR Inten    --      4.0718                 3.2699                 1.6817

                     31                     32                     33
                      A                      A                      A
 Frequencies --    150.9270               157.1100               157.9060
 Red. masses --     47.9808                45.1410                45.3465
 Frc consts  --      0.6439                 0.6565                 0.6662
 IR Inten    --      1.0914                 3.0077                 4.4872

                     34                     35                     36
                      A                      A                      A
 Frequencies --    159.6637               164.5119               170.6129
 Red. masses --     41.0088                48.2348                44.0373
 Frc consts  --      0.6159                 0.7691                 0.7553
 IR Inten    --      0.1389                 1.4622                 0.6578

                     37                     38                     39
                      A                      A                      A
 Frequencies --    172.3011               174.5110               182.0575
 Red. masses --     55.6583                51.8771                48.7660
 Frc consts  --      0.9735                 0.9308                 0.9523
 IR Inten    --      9.7483                 6.4724                 3.4468

                     40                     41                     42
                      A                      A                      A
 Frequencies --    190.1630               201.0846               203.8810
 Red. masses --     51.4060                49.8745                37.3677
 Frc consts  --      1.0953                 1.1882                 0.9152
 IR Inten    --     11.4285                 0.4719                 0.5128

                     43                     44                     45
                      A                      A                      A
 Frequencies --    211.2920               223.4249               235.0247
 Red. masses --     34.7132                39.1268                35.8326
 Frc consts  --      0.9131                 1.1508                 1.1662
 IR Inten    --      4.6124                 5.5937                10.8350

                     46                     47                     48
                      A                      A                      A
 Frequencies --    241.4211               243.5409               244.7180
 Red. masses --     36.7003                35.4807                33.8820
 Frc consts  --      1.2603                 1.2399                 1.1955
 IR Inten    --     14.0669                 2.7616                 0.8251

                     49                     50                     51
                      A                      A                      A
 Frequencies --    250.7919               252.4926               260.8095
 Red. masses --     34.8940                37.1456                34.3079
 Frc consts  --      1.2931                 1.3953                 1.3750
 IR Inten    --      1.0367                 0.2333                 4.7560

                     52                     53                     54
                      A                      A                      A
 Frequencies --    266.4855               267.5544               282.1751
 Red. masses --     35.2022                35.6945                35.6387
 Frc consts  --      1.4729                 1.5055                 1.6719
 IR Inten    --      1.5742                 0.1437                 0.7058

                     55                     56                     57
                      A                      A                      A
 Frequencies --    286.2079               291.7560               295.2681
 Red. masses --     34.6919                34.8338                34.8891
 Frc consts  --      1.6743                 1.7470                 1.7921
 IR Inten    --      1.2449                 3.2980                 3.4215

                     58                     59                     60
                      A                      A                      A
 Frequencies --    298.9679               306.5678               309.7398
 Red. masses --     35.5903                37.5612                36.2965
 Frc consts  --      1.8743                 2.0799                 2.0517
 IR Inten    --      7.3820                 2.3074                 4.9303

                     61                     62                     63
                      A                      A                      A
 Frequencies --    314.3108               317.9799               327.5633
 Red. masses --     35.1032                34.2664                33.6034
 Frc consts  --      2.0432                 2.0413                 2.1243
 IR Inten    --      6.0083                 2.0047                18.1036

                     64                     65                     66
                      A                      A                      A
 Frequencies --    330.7195               345.3965               356.2005
 Red. masses --     33.3038                34.9496                34.8942
 Frc consts  --      2.1462                 2.4566                 2.6085
 IR Inten    --      4.2742                 2.5208                 4.6284

                     67                     68                     69
                      A                      A                      A
 Frequencies --    359.1517               367.0473               371.8078
 Red. masses --     34.0680                38.3214                33.7865
 Frc consts  --      2.5891                 3.0418                 2.7519
 IR Inten    --      5.1840                 5.9982                26.4599

                     70                     71                     72
                      A                      A                      A
 Frequencies --    374.7530               391.2032               399.0251
 Red. masses --     35.9175                28.8409                19.3379
 Frc consts  --      2.9720                 2.6005                 1.8141
 IR Inten    --      0.6965                10.5968                 0.0461

                     73                     74                     75
                      A                      A                      A
 Frequencies --    404.2171               408.4498               414.4174
 Red. masses --     29.1381                35.8030                37.7605
 Frc consts  --      2.8051                 3.5192                 3.8209
 IR Inten    --     31.2532                 0.7741                 1.7142

                     76                     77                     78
                      A                      A                      A
 Frequencies --    417.7790               423.2718               429.1760
 Red. masses --     38.1077                37.9727                37.0452
 Frc consts  --      3.9188                 4.0083                 4.0202
 IR Inten    --     11.5496                 7.3262                 0.7417

                     79                     80                     81
                      A                      A                      A
 Frequencies --    433.5300               434.9435               437.2943
 Red. masses --     33.6423                33.4635                38.3111
 Frc consts  --      3.7254                 3.7298                 4.3164
 IR Inten    --      1.7915                 0.4864                 5.2313

                     82                     83                     84
                      A                      A                      A
 Frequencies --    438.5351               453.6609               460.7325
 Red. masses --     38.9120                39.3556                39.9993
 Frc consts  --      4.4090                 4.7722                 5.0026
 IR Inten    --      0.8670                 0.4708                21.3339

                     85                     86                     87
                      A                      A                      A
 Frequencies --    465.7929               468.1356               468.7136
 Red. masses --     37.2928                35.5635                38.2541
 Frc consts  --      4.7672                 4.5920                 4.9516
 IR Inten    --      9.4197                32.2645                14.5396

                     88                     89                     90
                      A                      A                      A
 Frequencies --    475.1274               490.2114               527.1204
 Red. masses --     39.6667                 1.1502                16.8044
 Frc consts  --      5.2759                 0.1629                 2.7510
 IR Inten    --     10.8575                 2.7987               112.0884

                     91                     92                     93
                      A                      A                      A
 Frequencies --    564.4270               566.4716              1040.5542
 Red. masses --     39.9331                39.9491                 1.0520
 Frc consts  --      7.4955                 7.5529                 0.6711
 IR Inten    --    259.6461               137.9823                23.8544

                     94                     95                     96
                      A                      A                      A
 Frequencies --   1061.2996              1225.6809              1495.0639
 Red. masses --      1.0116                 1.0189                 1.0219
 Frc consts  --      0.6714                 0.9019                 1.3458
 IR Inten    --      1.1975                21.9339                11.3155

 - Thermochemistry -
 -------------------
 Temperature   298.150 Kelvin.  Pressure   1.00000 Atm.
 Atom     1 has atomic number 42 and mass  97.90550

 Molecular mass:  1684.45623 amu.
 Principal axes and moments of inertia in atomic units:
                           1         2         3
     Eigenvalues --  ******************************
           X           -0.48664   0.86982  -0.08125
           Y           -0.52116  -0.21441   0.82609
           Z            0.70112   0.44435   0.55766
 This molecule is an asymmetric top.
 Rotational symmetry number  1.
 Warning -- assumption of classical behavior for rotation
           may cause significant error
 Rotational temperatures (Kelvin)      0.00162     0.00144     0.00083
 Rotational constants (GHZ):           0.03378     0.03002     0.01731
    1 imaginary frequencies ignored.
 Zero-point vibrational energy     166641.0 (Joules/Mol)
                                   39.82815 (Kcal/Mol)
 Warning -- explicit consideration of  91 degrees of freedom as
           vibrations may cause significant error
 Vibrational temperatures:     28.68    49.14    59.51    62.32    74.05
          (Kelvin)             87.01    89.94    92.06   107.24   111.42
                              112.71   121.91   126.58   131.19   144.51
                              146.83   154.54   160.89   166.46   168.84
                              174.93   179.98   186.33   191.56   197.04
                              197.93   204.17   211.26   213.93   217.15
                              226.05   227.19   229.72   236.70   245.47
                              247.90   251.08   261.94   273.60   289.32
                              293.34   304.00   321.46   338.15   347.35
                              350.40   352.09   360.83   363.28   375.25
                              383.41   384.95   405.99   411.79   419.77
                              424.82   430.15   441.08   445.65   452.22
                              457.50   471.29   475.83   496.95   512.49
                              516.74   528.10   534.95   539.19   562.85
                              574.11   581.58   587.67   596.25   601.09
                              608.99   617.49   623.75   625.79   629.17
                              630.95   652.72   662.89   670.17   673.54
                              674.37   683.60   705.30   758.41   812.08
                              815.03  1497.13  1526.97  1763.48  2151.06

 Zero-point correction=                           0.063470 (Hartree/Particle)
 Thermal correction to Energy=                    0.113158
 Thermal correction to Enthalpy=                  0.114102
 Thermal correction to Gibbs Free Energy=        -0.021877
 Sum of electronic and zero-point Energies=          -9437.834524
 Sum of electronic and thermal Energies=             -9437.784837
 Sum of electronic and thermal Enthalpies=           -9437.783893
 Sum of electronic and thermal Free Energies=        -9437.919871

                     E (Thermal)             CV                S
                      KCal/Mol        Cal/Mol-Kelvin    Cal/Mol-Kelvin
 Total                   71.008            162.690            286.191
 Electronic               0.000              0.000              0.000
 Translational            0.889              2.981             48.136
 Rotational               0.889              2.981             41.033
 Vibrational             69.230            156.728            197.022
 Vibration     1          0.593              1.986              6.641
 Vibration     2          0.594              1.983              5.572
 Vibration     3          0.594              1.981              5.193
 Vibration     4          0.595              1.980              5.101
 Vibration     5          0.596              1.977              4.760
 Vibration     6          0.597              1.973              4.442
 Vibration     7          0.597              1.972              4.376
 Vibration     8          0.597              1.971              4.330
 Vibration     9          0.599              1.966              4.030
 Vibration    10          0.599              1.964              3.955
 Vibration    11          0.600              1.964              3.932
 Vibration    12          0.601              1.960              3.778
 Vibration    13          0.601              1.958              3.705
 Vibration    14          0.602              1.955              3.635
 Vibration    15          0.604              1.949              3.446
 Vibration    16          0.604              1.948              3.415
 Vibration    17          0.606              1.943              3.315
 Vibration    18          0.607              1.940              3.237
 Vibration    19          0.608              1.936              3.171
 Vibration    20          0.608              1.935              3.144
 Vibration    21          0.609              1.931              3.075
 Vibration    22          0.610              1.928              3.020
 Vibration    23          0.612              1.924              2.953
 Vibration    24          0.613              1.920              2.900
 Vibration    25          0.614              1.916              2.846
 Vibration    26          0.614              1.916              2.837
 Vibration    27          0.615              1.911              2.778
 Vibration    28          0.617              1.906              2.713
 Vibration    29          0.618              1.904              2.689
 Vibration    30          0.618              1.902              2.661
 Vibration    31          0.621              1.895              2.584
 Vibration    32          0.621              1.894              2.575
 Vibration    33          0.622              1.892              2.554
 Vibration    34          0.623              1.886              2.497
 Vibration    35          0.626              1.879              2.429
 Vibration    36          0.626              1.877              2.410
 Vibration    37          0.627              1.874              2.386
 Vibration    38          0.630              1.864              2.307
 Vibration    39          0.633              1.853              2.226
 Vibration    40          0.638              1.838              2.123
 Vibration    41          0.640              1.834              2.098
 Vibration    42          0.643              1.824              2.032
 Vibration    43          0.649              1.805              1.931
 Vibration    44          0.655              1.787              1.840
 Vibration    45          0.658              1.777              1.792
 Vibration    46          0.659              1.773              1.777
 Vibration    47          0.660              1.772              1.768
 Vibration    48          0.663              1.761              1.725
 Vibration    49          0.664              1.759              1.713
 Vibration    50          0.669              1.744              1.656
 Vibration    51          0.672              1.735              1.619
 Vibration    52          0.673              1.733              1.612
 Vibration    53          0.681              1.707              1.520
 Vibration    54          0.684              1.699              1.496
 Vibration    55          0.687              1.689              1.464
 Vibration    56          0.689              1.683              1.444
 Vibration    57          0.692              1.676              1.423
 Vibration    58          0.697              1.661              1.381
 Vibration    59          0.699              1.655              1.364
 Vibration    60          0.702              1.646              1.340
 Vibration    61          0.704              1.639              1.320
 Vibration    62          0.711              1.620              1.272
 Vibration    63          0.713              1.614              1.257
 Vibration    64          0.724              1.585              1.187
 Vibration    65          0.732              1.563              1.139
 Vibration    66          0.734              1.556              1.126
 Vibration    67          0.740              1.540              1.092
 Vibration    68          0.744              1.530              1.072
 Vibration    69          0.746              1.524              1.060
 Vibration    70          0.759              1.489              0.996
 Vibration    71          0.765              1.472              0.966
 Vibration    72          0.769              1.461              0.947
 Vibration    73          0.773              1.452              0.932
 Vibration    74          0.778              1.439              0.911
 Vibration    75          0.781              1.432              0.900
 Vibration    76          0.785              1.420              0.881
 Vibration    77          0.791              1.407              0.861
 Vibration    78          0.794              1.397              0.847
 Vibration    79          0.796              1.394              0.843
 Vibration    80          0.798              1.389              0.835
 Vibration    81          0.799              1.386              0.831
 Vibration    82          0.812              1.353              0.785
 Vibration    83          0.819              1.337              0.764
 Vibration    84          0.823              1.326              0.749
 Vibration    85          0.825              1.321              0.743
 Vibration    86          0.826              1.319              0.741
 Vibration    87          0.832              1.305              0.723
 Vibration    88          0.846              1.272              0.683
 Vibration    89          0.882              1.190              0.594
 Vibration    90          0.920              1.108              0.515
 Vibration    91          0.922              1.104              0.511

                           ! Non-Optimized Parameters !
 Normal termination of Gaussian 16 at Tue Dec 13 10:28:54 2022.
