 Gaussian 16, Revision C.01,
 Gaussian 16:  ES64L-G16RevC.01  3-Jul-2019

 ---------------------------------------
 # opt freq b3lyp/gen nosymm pseudo=read
 ---------------------------------------

 -------------------
 Title Card Required
 -------------------
 Symbolic Z-matrix:
 Charge =  0 Multiplicity = 1

 SCF Done:  E(RB3LYP) =  -9436.75260648     A.U. after   35 cycles
 SCF Done:  E(RB3LYP) =  -9436.75260829     A.U. after   12 cycles
 Optimization completed.
    -- Stationary point found.
 Normal termination of Gaussian 16 at Tue Dec 13 09:17:48 2022.

 ------------------------------------------------------------------
 #N Geom=AllCheck Guess=TCheck SCRF=Check GenChk RB3LYP/ChkBas Freq
 ------------------------------------------------------------------

 Structure from the checkpoint file:  "/localscratch/chegho/Gau-194041.chk"
 -------------------
 Title Card Required
 -------------------
 Charge =  0 Multiplicity = 1

                          Input orientation:
 ---------------------------------------------------------------------
 Center     Atomic      Atomic             Coordinates (Angstroms)
 Number     Number       Type             X           Y           Z
 ---------------------------------------------------------------------
      1         42           0        0.361141    1.845309   12.308757
      2         16           0        1.205403    3.979095   11.943949
      3         16           0       -1.706561    2.361719   13.330513
      4         16           0       -0.486836    0.956807   10.260603
      5         16           0        2.250039    0.283285   11.652501
      6         42           0       -2.164280    2.457119   11.030554
      7         16           0       -3.282409    1.624673    8.931872
      8         16           0       -1.554688    4.662450   10.598869
      9         42           0        0.280144    3.239176    9.729624
     10         16           0       -0.589685    2.652282    7.449597
     11         16           0        2.336640    1.989147    8.938020
     12         42           0        2.923487    2.646539   11.145242
     13         42           0       -2.316892    3.929194    8.523863
     14         16           0        4.307090    2.748558   13.221759
     15         16           0        4.547458    4.291300   10.433766
     16         16           0       -4.572189    4.957232    8.745744
     17         16           0       -1.793844    6.096464    7.532636
     18         42           0       -4.945377    2.977174    9.742640
     19         16           0       -6.891456    2.239202    9.350594
     20         16           0       -4.489586    3.135316   11.909765
     21         42           0        2.958956    1.017050   13.704158
     22         16           0        3.969382   -0.491046   14.796882
     23         16           0        1.111703    1.741509   14.725779
     24         42           0        0.067097    4.869347    7.196604
     25         16           0        0.584907    5.758815    5.138332
     26         16           0        1.181716    5.589207    9.170022
     27         42           0        3.040127    4.253395    8.708062
     28         16           0        2.451152    3.820665    6.429786
     29         16           0        4.518491    5.715379    7.583550
     30         42           0        2.984974    6.206568    5.742977
     31         16           0        4.111342    6.171424    3.961079
     32         16           0        2.594376    8.240033    6.296700
 ---------------------------------------------------------------------

 SCF Done:  E(RB3LYP) =  -9436.75260829     A.U. after    3 cycles

 Alpha  occ. eigenvalues --  -88.94665 -88.94661 -88.94254 -88.93637 -88.92771
 Alpha  occ. eigenvalues --  -88.92727 -88.92702 -88.92613 -88.91617 -88.90945
 Alpha  occ. eigenvalues --  -88.90877 -88.90397 -88.90149 -88.90128 -88.90113
 Alpha  occ. eigenvalues --  -88.90098 -88.90014 -88.89112 -88.88957 -88.88862
 Alpha  occ. eigenvalues --  -88.88817 -88.88099  -8.02125  -8.02003  -8.01565
 Alpha  occ. eigenvalues --   -8.01014  -8.00218  -8.00204  -8.00120  -8.00114
 Alpha  occ. eigenvalues --   -7.99209  -7.98556  -7.98330  -7.97976  -7.97865
 Alpha  occ. eigenvalues --   -7.97853  -7.97843  -7.97829  -7.97551  -7.97004
 Alpha  occ. eigenvalues --   -7.96842  -7.96756  -7.96469  -7.95948  -5.98157
 Alpha  occ. eigenvalues --   -5.98114  -5.98060  -5.98004  -5.97972  -5.97902
 Alpha  occ. eigenvalues --   -5.97603  -5.97547  -5.97474  -5.97074  -5.97003
 Alpha  occ. eigenvalues --   -5.96886  -5.96255  -5.96240  -5.96211  -5.96208
 Alpha  occ. eigenvalues --   -5.96153  -5.96146  -5.96130  -5.96111  -5.96100
 Alpha  occ. eigenvalues --   -5.96052  -5.95995  -5.95979  -5.95248  -5.95210
 Alpha  occ. eigenvalues --   -5.95043  -5.94610  -5.94472  -5.94468  -5.94461
 Alpha  occ. eigenvalues --   -5.94249  -5.94167  -5.94107  -5.93961  -5.93948
 Alpha  occ. eigenvalues --   -5.93939  -5.93933  -5.93908  -5.93815  -5.93808
 Alpha  occ. eigenvalues --   -5.93791  -5.93786  -5.93784  -5.93687  -5.93666
 Alpha  occ. eigenvalues --   -5.93650  -5.93648  -5.93616  -5.93475  -5.93378
 Alpha  occ. eigenvalues --   -5.92988  -5.92939  -5.92895  -5.92829  -5.92798
 Alpha  occ. eigenvalues --   -5.92766  -5.92742  -5.92741  -5.92595  -5.92521
 Alpha  occ. eigenvalues --   -5.92428  -5.92253  -5.92141  -5.91875  -5.91645
 Alpha  occ. eigenvalues --   -2.58775  -2.58262  -2.58127  -2.57890  -2.57421
 Alpha  occ. eigenvalues --   -2.56447  -2.56340  -2.56252  -2.55987  -2.55041
 Alpha  occ. eigenvalues --   -1.61572  -1.61108  -1.60957  -1.60895  -1.60769
 Alpha  occ. eigenvalues --   -1.60604  -1.60532  -1.60510  -1.60231  -1.60094
 Alpha  occ. eigenvalues --   -1.60087  -1.59938  -1.59833  -1.59701  -1.59563
 Alpha  occ. eigenvalues --   -1.59518  -1.59231  -1.59172  -1.58782  -1.58587
 Alpha  occ. eigenvalues --   -1.58490  -1.58261  -1.58253  -1.58087  -1.57808
 Alpha  occ. eigenvalues --   -1.57475  -1.57301  -1.57164  -1.57107  -1.56795
 Alpha  occ. eigenvalues --   -0.79261  -0.77041  -0.76782  -0.76550  -0.76105
 Alpha  occ. eigenvalues --   -0.75925  -0.74968  -0.74689  -0.74355  -0.73410
 Alpha  occ. eigenvalues --   -0.73080  -0.72846  -0.72731  -0.72229  -0.72013
 Alpha  occ. eigenvalues --   -0.71399  -0.71181  -0.70685  -0.70279  -0.70133
 Alpha  occ. eigenvalues --   -0.70066  -0.69171  -0.46600  -0.46096  -0.45947
 Alpha  occ. eigenvalues --   -0.45133  -0.43825  -0.43527  -0.43397  -0.43297
 Alpha  occ. eigenvalues --   -0.42660  -0.42613  -0.42275  -0.42215  -0.41879
 Alpha  occ. eigenvalues --   -0.41603  -0.40876  -0.40814  -0.40179  -0.40044
 Alpha  occ. eigenvalues --   -0.39941  -0.39766  -0.39510  -0.39349  -0.39129
 Alpha  occ. eigenvalues --   -0.38835  -0.38736  -0.38465  -0.38263  -0.38139
 Alpha  occ. eigenvalues --   -0.37579  -0.37514  -0.37281  -0.37182  -0.37012
 Alpha  occ. eigenvalues --   -0.36906  -0.36872  -0.36752  -0.36477  -0.36394
 Alpha  occ. eigenvalues --   -0.36171  -0.36036  -0.35642  -0.35443  -0.35161
 Alpha  occ. eigenvalues --   -0.34955  -0.34638  -0.34311  -0.34076  -0.33795
 Alpha  occ. eigenvalues --   -0.33580  -0.33102  -0.32875  -0.32521  -0.32184
 Alpha  occ. eigenvalues --   -0.31877  -0.31603  -0.31159  -0.30988  -0.30900
 Alpha  occ. eigenvalues --   -0.30504  -0.30119  -0.29929  -0.29781  -0.29581
 Alpha  occ. eigenvalues --   -0.29027  -0.28449  -0.27880  -0.27300  -0.26880
 Alpha  occ. eigenvalues --   -0.26645  -0.26442  -0.26010  -0.25193  -0.25163
 Alpha  occ. eigenvalues --   -0.24485
 Alpha virt. eigenvalues --   -0.19042  -0.18306  -0.17773  -0.17388  -0.16693
 Alpha virt. eigenvalues --   -0.16363  -0.16023  -0.15800  -0.15384  -0.15112
 Alpha virt. eigenvalues --   -0.14765  -0.14680  -0.14484  -0.13701  -0.13557

 Mulliken charges:
               1
     1  Mo  -0.212261
     2  S    0.328928
     3  S    0.057436
     4  S    0.211703
     5  S    0.104006
     6  Mo  -0.218321
     7  S    0.091379
     8  S    0.380091
     9  Mo  -0.881538
    10  S    0.207709
    11  S    0.189620
    12  Mo  -0.258884
    13  Mo  -0.304730
    14  S    0.008719
    15  S    0.084106
    16  S   -0.006111
    17  S    0.114057
    18  Mo   0.294441
    19  S   -0.185743
    20  S   -0.012775
    21  Mo   0.285799
    22  S   -0.189348
    23  S   -0.005900
    24  Mo  -0.152559
    25  S    0.081966
    26  S    0.191469
    27  Mo  -0.147469
    28  S    0.155602
    29  S    0.100655
    30  Mo  -0.077917
    31  S   -0.160297
    32  S   -0.073833
 Sum of Mulliken charges =  -0.00000

 Dipole moment (field-independent basis, Debye):
    X=             -1.3645    Y=             -1.9508    Z=             -0.3414  Tot=              2.4051
 Quadrupole moment (field-independent basis, Debye-Ang):
   XX=           -534.8930   YY=           -537.0022   ZZ=           -536.5696
   XY=             -9.8674   XZ=             -7.4609   YZ=            -11.4637

  Exact polarizability:    1177.411      47.406     714.680       1.139    -337.281    1013.558
 Approx polarizability:    3712.765      84.854    2414.300     -15.714    -935.946    3411.495

                      1                      2                      3
                      A                      A                      A
 Frequencies --     26.8299                35.4246                40.8512
 Red. masses --     36.3846                38.9279                39.8941
 Frc consts  --      0.0154                 0.0288                 0.0392
 IR Inten    --      0.1504                 0.4419                 0.9038

                      4                      5                      6
                      A                      A                      A
 Frequencies --     44.3109                55.1994                62.6217
 Red. masses --     40.3207                38.9633                41.3967
 Frc consts  --      0.0466                 0.0699                 0.0956
 IR Inten    --      0.1028                 0.0634                 0.0732

                      7                      8                      9
                      A                      A                      A
 Frequencies --     62.9459                66.5055                74.3086
 Red. masses --     37.2330                35.3140                41.7849
 Frc consts  --      0.0869                 0.0920                 0.1359
 IR Inten    --      0.4582                 1.3080                 0.8820

                     10                     11                     12
                      A                      A                      A
 Frequencies --     78.3541                80.0433                86.0187
 Red. masses --     40.4854                43.1580                42.3621
 Frc consts  --      0.1464                 0.1629                 0.1847
 IR Inten    --      0.3916                 0.6350                 1.2315

                     13                     14                     15
                      A                      A                      A
 Frequencies --     89.6827                94.1296               103.9335
 Red. masses --     39.1969                38.9620                41.6251
 Frc consts  --      0.1857                 0.2034                 0.2649
 IR Inten    --      0.6095                 0.7241                 1.2098

                     16                     17                     18
                      A                      A                      A
 Frequencies --    106.8827               110.8137               115.9504
 Red. masses --     44.5846                44.7287                47.6280
 Frc consts  --      0.3001                 0.3236                 0.3773
 IR Inten    --      0.0594                 0.6745                 1.3427

                     19                     20                     21
                      A                      A                      A
 Frequencies --    117.7267               120.3270               122.6707
 Red. masses --     47.4273                44.5103                51.7430
 Frc consts  --      0.3873                 0.3797                 0.4588
 IR Inten    --      1.0896                 1.2341                 0.1620

                     22                     23                     24
                      A                      A                      A
 Frequencies --    126.5021               132.1744               136.0982
 Red. masses --     50.6534                49.1134                52.5740
 Frc consts  --      0.4776                 0.5055                 0.5738
 IR Inten    --      5.8149                 9.8481                12.2820

                     25                     26                     27
                      A                      A                      A
 Frequencies --    138.0153               142.3057               142.8176
 Red. masses --     50.6151                41.7411                49.1799
 Frc consts  --      0.5680                 0.4980                 0.5910
 IR Inten    --      2.0420                 0.9240                 6.3556

                     28                     29                     30
                      A                      A                      A
 Frequencies --    147.8860               150.0209               151.4619
 Red. masses --     42.2829                52.1369                47.5163
 Frc consts  --      0.5448                 0.6914                 0.6422
 IR Inten    --      2.1121                 2.2312                 3.1234

                     31                     32                     33
                      A                      A                      A
 Frequencies --    157.9927               159.1963               160.5291
 Red. masses --     50.5989                40.9150                41.4549
 Frc consts  --      0.7442                 0.6109                 0.6294
 IR Inten    --      1.6248                 0.6431                 1.2671

                     34                     35                     36
                      A                      A                      A
 Frequencies --    167.5656               170.7034               172.1952
 Red. masses --     50.2534                43.7969                54.9737
 Frc consts  --      0.8314                 0.7519                 0.9604
 IR Inten    --      2.7266                 1.7346                 9.5368

                     37                     38                     39
                      A                      A                      A
 Frequencies --    175.1553               180.6455               191.3556
 Red. masses --     53.6288                45.3620                51.4567
 Frc consts  --      0.9694                 0.8722                 1.1101
 IR Inten    --      7.7782                 4.4202                 6.0514

                     40                     41                     42
                      A                      A                      A
 Frequencies --    195.9008               202.8346               204.1046
 Red. masses --     41.5676                50.2214                37.9749
 Frc consts  --      0.9399                 1.2174                 0.9321
 IR Inten    --      4.8407                 0.6699                 0.3746

                     43                     44                     45
                      A                      A                      A
 Frequencies --    218.8324               223.3961               234.7232
 Red. masses --     37.0582                38.6459                36.2081
 Frc consts  --      1.0456                 1.1363                 1.1754
 IR Inten    --      3.8966                 2.9112                 8.5726

                     46                     47                     48
                      A                      A                      A
 Frequencies --    240.8190               241.8523               244.1966
 Red. masses --     34.6467                36.9661                34.6601
 Frc consts  --      1.1838                 1.2740                 1.2178
 IR Inten    --      8.1117                 4.5032                 1.6443

                     49                     50                     51
                      A                      A                      A
 Frequencies --    251.9772               254.1643               259.3254
 Red. masses --     36.8875                35.9684                34.7471
 Frc consts  --      1.3799                 1.3690                 1.3768
 IR Inten    --      0.6381                 0.3281                 1.5280

                     52                     53                     54
                      A                      A                      A
 Frequencies --    266.9669               271.1909               283.3489
 Red. masses --     35.5280                35.9139                36.9408
 Frc consts  --      1.4919                 1.5562                 1.7474
 IR Inten    --      0.7853                 1.1804                 1.5302

                     55                     56                     57
                      A                      A                      A
 Frequencies --    288.3781               292.5393               299.4456
 Red. masses --     35.0307                34.7692                37.5586
 Frc consts  --      1.7164                 1.7531                 1.9842
 IR Inten    --      0.8352                 6.1168                 2.7655

                     58                     59                     60
                      A                      A                      A
 Frequencies --    304.6286               308.1813               309.8671
 Red. masses --     36.7058                37.8319                36.4555
 Frc consts  --      2.0069                 2.1170                 2.0624
 IR Inten    --      7.3279                 0.4140                 2.9041

                     61                     62                     63
                      A                      A                      A
 Frequencies --    315.7334               318.2508               330.4673
 Red. masses --     36.2046                36.3869                35.4550
 Frc consts  --      2.1265                 2.1714                 2.2813
 IR Inten    --      3.1850                 1.0242                 1.0551

                     64                     65                     66
                      A                      A                      A
 Frequencies --    333.3686               345.7215               352.8326
 Red. masses --     36.2438                35.1636                37.1754
 Frc consts  --      2.3732                 2.4763                 2.7267
 IR Inten    --      6.1185                 2.2538                 3.4450

                     67                     68                     69
                      A                      A                      A
 Frequencies --    358.5666               366.5895               373.5186
 Red. masses --     36.5044                39.6378                37.3010
 Frc consts  --      2.7653                 3.1385                 3.0662
 IR Inten    --      3.9766                 2.4123                 9.5838

                     70                     71                     72
                      A                      A                      A
 Frequencies --    379.0098               392.9770               401.6068
 Red. masses --     36.6246                37.9951                37.3888
 Frc consts  --      3.0997                 3.4571                 3.5530
 IR Inten    --     15.3302                11.6390                25.8262

                     73                     74                     75
                      A                      A                      A
 Frequencies --    408.6300               414.7046               418.5129
 Red. masses --     35.7866                37.9965                38.5354
 Frc consts  --      3.5207                 3.8501                 3.9767
 IR Inten    --      0.6051                 1.8996                 6.3354

                     76                     77                     78
                      A                      A                      A
 Frequencies --    424.8010               428.6049               433.6221
 Red. masses --     38.6562                37.1019                34.4231
 Frc consts  --      4.1100                 4.0157                 3.8135
 IR Inten    --     11.7580                 1.3535                 0.8889

                     79                     80                     81
                      A                      A                      A
 Frequencies --    435.2738               436.6036               438.3876
 Red. masses --     33.4859                37.7170                39.0689
 Frc consts  --      3.7380                 4.2361                 4.4238
 IR Inten    --      0.4166                 5.4838                 1.0751

                     82                     83                     84
                      A                      A                      A
 Frequencies --    453.0433               461.1835               466.8518
 Red. masses --     39.3646                40.0881                40.1083
 Frc consts  --      4.7603                 5.0236                 5.1504
 IR Inten    --      0.4262                22.6879                26.7664

                     85                     86                     87
                      A                      A                      A
 Frequencies --    468.7721               475.3967               517.3453
 Red. masses --     39.3081                39.7410                38.3640
 Frc consts  --      5.0893                 5.2918                 6.0497
 IR Inten    --      0.5399                11.3149                41.3435

                     88                     89                     90
                      A                      A                      A
 Frequencies --    564.6621               566.4227               569.1498
 Red. masses --     39.9505                39.9695                39.5681
 Frc consts  --      7.5050                 7.5555                 7.5518
 IR Inten    --    260.8269               173.9924                70.9470

 - Thermochemistry -
 -------------------
 Temperature   298.150 Kelvin.  Pressure   1.00000 Atm.
 Atom     1 has atomic number 42 and mass  97.90550

 Molecular mass:  1682.44058 amu.
 Principal axes and moments of inertia in atomic units:
                           1         2         3
     Eigenvalues --  ******************************
           X           -0.45649   0.88764  -0.06090
           Y           -0.50139  -0.20010   0.84177
           Z            0.73500   0.41479   0.53640
 This molecule is an asymmetric top.
 Rotational symmetry number  1.
 Warning -- assumption of classical behavior for rotation
           may cause significant error
 Rotational temperatures (Kelvin)      0.00162     0.00148     0.00084
 Rotational constants (GHZ):           0.03368     0.03074     0.01754
 Zero-point vibrational energy     134851.6 (Joules/Mol)
                                   32.23032 (Kcal/Mol)
 Warning -- explicit consideration of  90 degrees of freedom as
           vibrations may cause significant error
 Vibrational temperatures:     38.60    50.97    58.78    63.75    79.42
          (Kelvin)             90.10    90.57    95.69   106.91   112.73
                              115.16   123.76   129.03   135.43   149.54
                              153.78   159.44   166.83   169.38   173.12
                              176.50   182.01   190.17   195.81   198.57
                              204.75   205.48   212.77   215.85   217.92
                              227.32   229.05   230.97   241.09   245.60
                              247.75   252.01   259.91   275.32   281.86
                              291.83   293.66   314.85   321.42   337.71
                              346.48   347.97   351.34   362.54   365.69
                              373.11   384.11   390.18   407.68   414.91
                              420.90   430.84   438.29   443.40   445.83
                              454.27   457.89   475.47   479.64   497.42
                              507.65   515.90   527.44   537.41   545.31
                              565.41   577.82   587.93   596.67   602.15
                              611.19   616.67   623.89   626.26   628.18
                              630.74   651.83   663.54   671.70   674.46
                              683.99   744.34   812.42   814.96   818.88

 Zero-point correction=                           0.051362 (Hartree/Particle)
 Thermal correction to Energy=                    0.100746
 Thermal correction to Enthalpy=                  0.101690
 Thermal correction to Gibbs Free Energy=        -0.033327
 Sum of electronic and zero-point Energies=          -9436.701246
 Sum of electronic and thermal Energies=             -9436.651863
 Sum of electronic and thermal Enthalpies=           -9436.650918
 Sum of electronic and thermal Free Energies=        -9436.785935

                     E (Thermal)             CV                S
                      KCal/Mol        Cal/Mol-Kelvin    Cal/Mol-Kelvin
 Total                   63.219            160.550            284.166
 Electronic               0.000              0.000              0.000
 Translational            0.889              2.981             48.132
 Rotational               0.889              2.981             41.000
 Vibrational             61.441            154.589            195.033
 Vibration     1          0.593              1.984              6.051
 Vibration     2          0.594              1.982              5.500
 Vibration     3          0.594              1.981              5.217
 Vibration     4          0.595              1.980              5.056
 Vibration     5          0.596              1.975              4.622
 Vibration     6          0.597              1.972              4.373
 Vibration     7          0.597              1.972              4.363
 Vibration     8          0.598              1.970              4.254
 Vibration     9          0.599              1.966              4.036
 Vibration    10          0.600              1.964              3.932
 Vibration    11          0.600              1.963              3.890
 Vibration    12          0.601              1.959              3.749
 Vibration    13          0.602              1.956              3.667
 Vibration    14          0.603              1.953              3.572
 Vibration    15          0.605              1.946              3.379
 Vibration    16          0.606              1.944              3.325
 Vibration    17          0.607              1.941              3.255
 Vibration    18          0.608              1.936              3.167
 Vibration    19          0.608              1.935              3.137
 Vibration    20          0.609              1.932              3.095
 Vibration    21          0.610              1.930              3.058
 Vibration    22          0.611              1.927              2.999
 Vibration    23          0.612              1.921              2.914
 Vibration    24          0.614              1.917              2.858
 Vibration    25          0.614              1.915              2.831
 Vibration    26          0.616              1.911              2.773
 Vibration    27          0.616              1.910              2.766
 Vibration    28          0.617              1.905              2.699
 Vibration    29          0.618              1.903              2.672
 Vibration    30          0.619              1.901              2.654
 Vibration    31          0.621              1.894              2.574
 Vibration    32          0.621              1.892              2.559
 Vibration    33          0.622              1.891              2.544
 Vibration    34          0.624              1.882              2.463
 Vibration    35          0.626              1.879              2.428
 Vibration    36          0.626              1.877              2.411
 Vibration    37          0.627              1.873              2.379
 Vibration    38          0.630              1.866              2.322
 Vibration    39          0.634              1.852              2.215
 Vibration    40          0.636              1.846              2.171
 Vibration    41          0.639              1.836              2.107
 Vibration    42          0.640              1.834              2.096
 Vibration    43          0.647              1.812              1.969
 Vibration    44          0.649              1.805              1.931
 Vibration    45          0.655              1.788              1.843
 Vibration    46          0.658              1.778              1.797
 Vibration    47          0.658              1.776              1.789
 Vibration    48          0.660              1.772              1.772
 Vibration    49          0.664              1.759              1.717
 Vibration    50          0.665              1.756              1.702
 Vibration    51          0.668              1.747              1.666
 Vibration    52          0.672              1.734              1.616
 Vibration    53          0.675              1.726              1.589
 Vibration    54          0.682              1.705              1.513
 Vibration    55          0.685              1.695              1.483
 Vibration    56          0.688              1.688              1.459
 Vibration    57          0.692              1.675              1.420
 Vibration    58          0.696              1.665              1.391
 Vibration    59          0.698              1.658              1.372
 Vibration    60          0.699              1.655              1.363
 Vibration    61          0.703              1.644              1.332
 Vibration    62          0.705              1.639              1.319
 Vibration    63          0.713              1.615              1.258
 Vibration    64          0.715              1.609              1.244
 Vibration    65          0.724              1.584              1.186
 Vibration    66          0.729              1.569              1.154
 Vibration    67          0.733              1.558              1.128
 Vibration    68          0.739              1.541              1.094
 Vibration    69          0.745              1.526              1.065
 Vibration    70          0.749              1.515              1.043
 Vibration    71          0.760              1.485              0.989
 Vibration    72          0.767              1.467              0.957
 Vibration    73          0.773              1.451              0.931
 Vibration    74          0.778              1.438              0.910
 Vibration    75          0.781              1.430              0.897
 Vibration    76          0.787              1.416              0.876
 Vibration    77          0.790              1.408              0.863
 Vibration    78          0.794              1.397              0.847
 Vibration    79          0.796              1.393              0.842
 Vibration    80          0.797              1.390              0.837
 Vibration    81          0.799              1.386              0.832
 Vibration    82          0.812              1.354              0.787
 Vibration    83          0.819              1.336              0.763
 Vibration    84          0.824              1.324              0.746
 Vibration    85          0.826              1.319              0.741
 Vibration    86          0.832              1.305              0.723
 Vibration    87          0.872              1.212              0.616
 Vibration    88          0.920              1.108              0.515
 Vibration    89          0.922              1.104              0.511
 Vibration    90          0.925              1.098              0.506

                           ! Non-Optimized Parameters !
 Normal termination of Gaussian 16 at Tue Dec 13 09:34:33 2022.
