 Gaussian 16, Revision C.01,
 Gaussian 16:  ES64L-G16RevC.01  3-Jul-2019

 ---------------------------------------
 # opt freq b3lyp/gen nosymm pseudo=read
 ---------------------------------------

 -------------------
 Title Card Required
 -------------------
 Symbolic Z-matrix:
 Charge =  0 Multiplicity = 1

 SCF Done:  E(RB3LYP) =  -3390.82820109     A.U. after   24 cycles
 SCF Done:  E(RB3LYP) =  -3390.84540875     A.U. after   17 cycles
 SCF Done:  E(RB3LYP) =  -3390.86115662     A.U. after   17 cycles
 SCF Done:  E(RB3LYP) =  -3390.86482408     A.U. after   16 cycles
 SCF Done:  E(RB3LYP) =  -3390.86722823     A.U. after   17 cycles
 SCF Done:  E(RB3LYP) =  -3390.86819954     A.U. after   16 cycles
 SCF Done:  E(RB3LYP) =  -3390.86968234     A.U. after   17 cycles
 SCF Done:  E(RB3LYP) =  -3390.87036648     A.U. after   16 cycles
 SCF Done:  E(RB3LYP) =  -3390.87094569     A.U. after   16 cycles
 SCF Done:  E(RB3LYP) =  -3390.87111559     A.U. after   15 cycles
 SCF Done:  E(RB3LYP) =  -3390.85730167     A.U. after   18 cycles
 SCF Done:  E(RB3LYP) =  -3390.87144827     A.U. after   16 cycles
 SCF Done:  E(RB3LYP) =  -3390.87188678     A.U. after   12 cycles
 SCF Done:  E(RB3LYP) =  -3390.87188209     A.U. after   17 cycles
 SCF Done:  E(RB3LYP) =  -3390.87191362     A.U. after   16 cycles
 SCF Done:  E(RB3LYP) =  -3390.87194407     A.U. after   14 cycles
 SCF Done:  E(RB3LYP) =  -3390.87194698     A.U. after   13 cycles
 SCF Done:  E(RB3LYP) =  -3390.87194802     A.U. after   13 cycles
 SCF Done:  E(RB3LYP) =  -3390.87194823     A.U. after   11 cycles
 Optimization completed.
    -- Stationary point found.
 Normal termination of Gaussian 16 at Wed Oct 26 09:59:15 2022.

 ------------------------------------------------------------------
 #N Geom=AllCheck Guess=TCheck SCRF=Check GenChk RB3LYP/ChkBas Freq
 ------------------------------------------------------------------

 Structure from the checkpoint file:  "Mo3_SH_2.chk"
 -------------------
 Title Card Required
 -------------------
 Charge =  0 Multiplicity = 1

                          Input orientation:
 ---------------------------------------------------------------------
 Center     Atomic      Atomic             Coordinates (Angstroms)
 Number     Number       Type             X           Y           Z
 ---------------------------------------------------------------------
      1         42           0       -0.372623    1.545040   11.834861
      2         16           0        0.606780    3.613859   11.596280
      3         16           0       -2.543365    1.931129   12.606664
      4         16           0       -0.677917    0.692569    9.647814
      5         16           0        0.946716   -0.262229   12.476435
      6          1           0        1.155487   -1.029518   11.387489
      7         42           0       -2.631175    1.771470   10.333351
      8         16           0       -4.443864    0.497996    9.575219
      9          1           0       -4.469163    0.956841    8.302916
     10         16           0       -2.573540    3.875235    9.528206
     11         42           0       -0.311834    3.125076    9.541104
     12         16           0        0.250509    5.335680    8.668795
     13          1           0       -0.690067    6.116765    9.237882
     14         16           0        1.155283    2.400071    7.828324
     15          1           0        1.585840    3.574979    7.313270
 ---------------------------------------------------------------------

 SCF Done:  E(RB3LYP) =  -3390.87194823     A.U. after    1 cycles

 Alpha  occ. eigenvalues --  -88.91672 -88.90557 -88.90070 -88.89746 -88.89341
 Alpha  occ. eigenvalues --  -88.88835 -88.87317 -88.85331  -7.99338  -7.98447
 Alpha  occ. eigenvalues --   -7.97884  -7.97605  -7.97175  -7.96715  -7.95041
 Alpha  occ. eigenvalues --   -7.93014  -5.95324  -5.95302  -5.95243  -5.94429
 Alpha  occ. eigenvalues --   -5.94390  -5.94333  -5.93898  -5.93810  -5.93768
 Alpha  occ. eigenvalues --   -5.93597  -5.93545  -5.93488  -5.93425  -5.93051
 Alpha  occ. eigenvalues --   -5.92967  -5.92886  -5.92591  -5.92421  -5.91302
 Alpha  occ. eigenvalues --   -5.90930  -5.90748  -5.89318  -5.88960  -5.88638
 Alpha  occ. eigenvalues --   -2.56654  -2.55474  -2.55204  -1.59913  -1.59429
 Alpha  occ. eigenvalues --   -1.58749  -1.58676  -1.57812  -1.57581  -1.57354
 Alpha  occ. eigenvalues --   -1.56806  -1.56024  -0.75791  -0.74760  -0.74198
 Alpha  occ. eigenvalues --   -0.73467  -0.73004  -0.72295  -0.72099  -0.70170
 Alpha  occ. eigenvalues --   -0.45570  -0.44698  -0.44578  -0.41831  -0.40855
 Alpha  occ. eigenvalues --   -0.39989  -0.39688  -0.39351  -0.38839  -0.38438
 Alpha  occ. eigenvalues --   -0.37925  -0.37234  -0.35584  -0.34673  -0.34406
 Alpha  occ. eigenvalues --   -0.33781  -0.33210  -0.31757  -0.31610  -0.30375
 Alpha  occ. eigenvalues --   -0.29770  -0.29017  -0.28539  -0.27667  -0.26972
 Alpha  occ. eigenvalues --   -0.26824  -0.23212
 Alpha virt. eigenvalues --   -0.15984  -0.14777  -0.14432  -0.13698  -0.13566
 Alpha virt. eigenvalues --   -0.11942  -0.10857  -0.09823  -0.09280  -0.08517
 Alpha virt. eigenvalues --   -0.07705  -0.03922  -0.02140  -0.00763   0.00431

 Mulliken charges:
               1
     1  Mo   0.073367
     2  S    0.000543
     3  S   -0.051622
     4  S    0.124854
     5  S   -0.144148
     6  H    0.107203
     7  Mo   0.142335
     8  S   -0.136791
     9  H    0.109400
    10  S   -0.015199
    11  Mo  -0.235195
    12  S   -0.102520
    13  H    0.077961
    14  S   -0.036961
    15  H    0.086772
 Sum of Mulliken charges =  -0.00000

 Dipole moment (field-independent basis, Debye):
    X=             -1.4612    Y=             -1.4919    Z=              0.7339  Tot=              2.2135
 Quadrupole moment (field-independent basis, Debye-Ang):
   XX=           -175.8356   YY=           -184.5271   ZZ=           -160.0410
   XY=             -6.5589   XZ=            -11.1211   YZ=            -10.1108

  Exact polarizability:     309.055      28.765     303.200      -4.225     -56.831     270.939
 Approx polarizability:     796.671      83.989     846.152     -18.804    -179.165     747.873

                      1                      2                      3
                      A                      A                      A
 Frequencies --     37.2232                57.3831                62.5015
 Red. masses --      8.9454                15.5016                12.9189
 Frc consts  --      0.0073                 0.0301                 0.0297
 IR Inten    --      0.4065                 0.0850                 0.2525

                      4                      5                      6
                      A                      A                      A
 Frequencies --     70.4008               100.7963               117.0284
 Red. masses --     11.8052                19.2965                11.0150
 Frc consts  --      0.0345                 0.1155                 0.0889
 IR Inten    --      0.0733                 0.9125                 0.4714

                      7                      8                      9
                      A                      A                      A
 Frequencies --    122.7268               138.4779               146.3145
 Red. masses --      7.1465                13.6213                15.2677
 Frc consts  --      0.0634                 0.1539                 0.1926
 IR Inten    --      1.9334                 0.3393                 4.1267

                     10                     11                     12
                      A                      A                      A
 Frequencies --    149.4021               174.1745               179.0540
 Red. masses --     10.7763                20.0817                 7.7864
 Frc consts  --      0.1417                 0.3589                 0.1471
 IR Inten    --      3.1398                 0.2421                 2.6592

                     13                     14                     15
                      A                      A                      A
 Frequencies --    194.1378               210.5799               219.7960
 Red. masses --      2.0113                 6.0801                 8.9541
 Frc consts  --      0.0447                 0.1589                 0.2549
 IR Inten    --      9.6407                 3.7325                 2.2028

                     16                     17                     18
                      A                      A                      A
 Frequencies --    241.6138               253.3520               273.1268
 Red. masses --      1.3705                 1.2790                 6.2242
 Frc consts  --      0.0471                 0.0484                 0.2736
 IR Inten    --     23.9328                 8.2849                 5.5713

                     19                     20                     21
                      A                      A                      A
 Frequencies --    293.1541               297.9174               305.4536
 Red. masses --     12.5686                18.1071                24.4199
 Frc consts  --      0.6364                 0.9469                 1.3424
 IR Inten    --      2.7748                 2.2523                 6.9080

                     22                     23                     24
                      A                      A                      A
 Frequencies --    338.1283               348.1651               365.1769
 Red. masses --     31.8833                28.2406                23.3853
 Frc consts  --      2.1477                 2.0169                 1.8374
 IR Inten    --     22.0479                 2.7603                47.4855

                     25                     26                     27
                      A                      A                      A
 Frequencies --    367.4404               373.6017               437.3750
 Red. masses --     28.8653                20.5633                32.5108
 Frc consts  --      2.2961                 1.6911                 3.6643
 IR Inten    --     34.4502                62.0980                 6.9204

                     28                     29                     30
                      A                      A                      A
 Frequencies --    437.6287               452.8914               462.1644
 Red. masses --      1.1957                12.2978                 7.1580
 Frc consts  --      0.1349                 1.4862                 0.9008
 IR Inten    --      8.9639                 7.5950                 4.0694

                     31                     32                     33
                      A                      A                      A
 Frequencies --    470.7682               529.4350               619.0565
 Red. masses --     28.2227                 1.1538                 1.0670
 Frc consts  --      3.6852                 0.1906                 0.2409
 IR Inten    --     22.7199                14.9754                17.3701

                     34                     35                     36
                      A                      A                      A
 Frequencies --    687.5348               774.9952              2638.3685
 Red. masses --      1.0522                 1.0502                 1.0382
 Frc consts  --      0.2930                 0.3717                 4.2579
 IR Inten    --     10.4126                 9.3232                 1.5657

                     37                     38                     39
                      A                      A                      A
 Frequencies --   2657.4646              2681.1661              2682.9603
 Red. masses --      1.0380                 1.0384                 1.0386
 Frc consts  --      4.3190                 4.3981                 4.4050
 IR Inten    --      4.9554                 2.9161                 0.3971

 - Thermochemistry -
 -------------------
 Temperature   298.150 Kelvin.  Pressure   1.00000 Atm.
 Atom     1 has atomic number 42 and mass  97.90550

 Molecular mass:   553.52437 amu.
 Principal axes and moments of inertia in atomic units:
                           1         2         3
     Eigenvalues --  6166.079577454.73067**********
           X            0.57599   0.78538  -0.22674
           Y            0.64497  -0.26621   0.71635
           Z           -0.50224   0.55885   0.65988
 This molecule is an asymmetric top.
 Rotational symmetry number  1.
 Warning -- assumption of classical behavior for rotation
           may cause significant error
 Rotational temperatures (Kelvin)      0.01405     0.01162     0.00862
 Rotational constants (GHZ):           0.29269     0.24209     0.17958
 Zero-point vibrational energy     125422.1 (Joules/Mol)
                                   29.97660 (Kcal/Mol)
 Warning -- explicit consideration of  33 degrees of freedom as
           vibrations may cause significant error
 Vibrational temperatures:     53.56    82.56    89.93   101.29   145.02
          (Kelvin)            168.38   176.58   199.24   210.51   214.96
                              250.60   257.62   279.32   302.98   316.24
                              347.63   364.52   392.97   421.78   428.64
                              439.48   486.49   500.93   525.41   528.66
                              537.53   629.29   629.65   651.61   664.95
                              677.33   761.74   890.68   989.21  1115.05
                             3796.02  3823.50  3857.60  3860.18

 Zero-point correction=                           0.047771 (Hartree/Particle)
 Thermal correction to Energy=                    0.067142
 Thermal correction to Enthalpy=                  0.068086
 Thermal correction to Gibbs Free Energy=        -0.001788
 Sum of electronic and zero-point Energies=          -3390.824177
 Sum of electronic and thermal Energies=             -3390.804806
 Sum of electronic and thermal Enthalpies=           -3390.803862
 Sum of electronic and thermal Free Energies=        -3390.873736

                     E (Thermal)             CV                S
                      KCal/Mol        Cal/Mol-Kelvin    Cal/Mol-Kelvin
 Total                   42.132             63.201            147.063
 Electronic               0.000              0.000              0.000
 Translational            0.889              2.981             44.819
 Rotational               0.889              2.981             34.490
 Vibrational             40.355             57.240             67.754
 Vibration     1          0.594              1.982              5.402
 Vibration     2          0.596              1.975              4.545
 Vibration     3          0.597              1.972              4.377
 Vibration     4          0.598              1.968              4.142
 Vibration     5          0.604              1.948              3.439
 Vibration     6          0.608              1.935              3.149
 Vibration     7          0.610              1.930              3.057
 Vibration     8          0.614              1.915              2.825
 Vibration     9          0.617              1.907              2.720
 Vibration    10          0.618              1.903              2.680
 Vibration    11          0.627              1.874              2.390
 Vibration    12          0.629              1.868              2.338
 Vibration    13          0.635              1.848              2.188
 Vibration    14          0.643              1.825              2.039
 Vibration    15          0.647              1.811              1.961
 Vibration    16          0.658              1.777              1.791
 Vibration    17          0.665              1.757              1.707
 Vibration    18          0.676              1.723              1.576
 Vibration    19          0.688              1.686              1.456
 Vibration    20          0.691              1.678              1.429
 Vibration    21          0.696              1.663              1.387
 Vibration    22          0.718              1.599              1.221
 Vibration    23          0.726              1.579              1.174
 Vibration    24          0.738              1.544              1.100
 Vibration    25          0.740              1.539              1.090
 Vibration    26          0.745              1.526              1.065
 Vibration    27          0.798              1.389              0.835
 Vibration    28          0.798              1.388              0.834
 Vibration    29          0.811              1.354              0.787
 Vibration    30          0.820              1.334              0.760
 Vibration    31          0.828              1.315              0.735
 Vibration    32          0.884              1.185              0.588
 Vibration    33          0.979              0.992              0.418

                           ! Non-Optimized Parameters !
 Normal termination of Gaussian 16 at Wed Oct 26 09:59:56 2022.
