 Gaussian 16, Revision C.01,
 Gaussian 16:  ES64L-G16RevC.01  3-Jul-2019

 ---------------------------------------
 # opt freq b3lyp/gen nosymm pseudo=read
 ---------------------------------------

 -------------------
 Title Card Required
 -------------------
 Symbolic Z-matrix:
 Charge =  0 Multiplicity = 1

 SCF Done:  E(RB3LYP) =  -3798.49661686     A.U. after   24 cycles
 SCF Done:  E(RB3LYP) =  -3798.50090481     A.U. after   17 cycles
 SCF Done:  E(RB3LYP) =  -3798.50201515     A.U. after   17 cycles
 SCF Done:  E(RB3LYP) =  -3798.50234563     A.U. after   17 cycles
 SCF Done:  E(RB3LYP) =  -3798.50244623     A.U. after   16 cycles
 SCF Done:  E(RB3LYP) =  -3798.50249414     A.U. after   15 cycles
 SCF Done:  E(RB3LYP) =  -3798.50250636     A.U. after   14 cycles
 SCF Done:  E(RB3LYP) =  -3798.50250928     A.U. after   13 cycles
 SCF Done:  E(RB3LYP) =  -3798.50251018     A.U. after   12 cycles
 SCF Done:  E(RB3LYP) =  -3798.50251048     A.U. after   12 cycles
 SCF Done:  E(RB3LYP) =  -3798.50251065     A.U. after   12 cycles
 Optimization completed.
    -- Stationary point found.
 Normal termination of Gaussian 16 at Mon Dec  5 16:23:42 2022.

 ------------------------------------------------------------------
 #N Geom=AllCheck Guess=TCheck SCRF=Check GenChk RB3LYP/ChkBas Freq
 ------------------------------------------------------------------

 Structure from the checkpoint file:  "/localscratch/chesayan/sagar/Gau-55085.chk"
 -------------------
 Title Card Required
 -------------------
 Charge =  0 Multiplicity = 1

                          Input orientation:
 ---------------------------------------------------------------------
 Center     Atomic      Atomic             Coordinates (Angstroms)
 Number     Number       Type             X           Y           Z
 ---------------------------------------------------------------------
      1         42           0        0.034907    1.168749   11.619628
      2         16           0        1.096892    3.254253   11.925555
      3         16           0       -1.889796    1.651769   12.910721
      4         16           0       -0.848724    1.013925    9.387408
      5         16           0        1.549776   -0.569812   10.850008
      6          1           0        2.093291   -1.011011   12.008196
      7         42           0       -2.301089    2.253559   10.747842
      8         16           0       -4.458939    1.571848   10.121268
      9          1           0       -4.577753    2.397979    9.056552
     10         16           0       -1.824540    4.413871   10.386324
     11         42           0        0.187317    3.168367    9.779998
     12         16           0        1.036871    5.213655    8.836967
     13          1           0        0.279649    6.165280    9.421443
     14         16           0        1.973257    2.247024    8.309837
     15          1           0        1.466432    1.048068    7.947286
     16         42           0        2.750554    1.781933   10.739688
     17          6           0        4.355277    0.774520    9.942480
     18          6           0        3.850656    3.479890   10.618757
     19          6           0        3.521538    1.414950   12.560752
     20          8           0        5.268777    0.230147    9.508022
     21          8           0        4.516872    4.417031   10.569507
     22          8           0        3.984740    1.194675   13.597722
 ---------------------------------------------------------------------

 SCF Done:  E(RB3LYP) =  -3798.50251065     A.U. after    1 cycles

 Alpha  occ. eigenvalues --  -88.91263 -88.90952 -88.90559 -88.89567 -88.89427
 Alpha  occ. eigenvalues --  -88.88948 -88.88647 -88.85716 -19.26075 -19.24308
 Alpha  occ. eigenvalues --  -19.24232 -10.33255 -10.31702 -10.31674  -7.98764
 Alpha  occ. eigenvalues --   -7.98619  -7.98085  -7.97236  -7.97012  -7.96722
 Alpha  occ. eigenvalues --   -7.96471  -7.93375  -5.94797  -5.94712  -5.94678
 Alpha  occ. eigenvalues --   -5.94634  -5.94578  -5.94502  -5.94357  -5.93954
 Alpha  occ. eigenvalues --   -5.93845  -5.93275  -5.93245  -5.93195  -5.93102
 Alpha  occ. eigenvalues --   -5.92928  -5.92752  -5.92747  -5.92728  -5.92654
 Alpha  occ. eigenvalues --   -5.92606  -5.92363  -5.92161  -5.89658  -5.89264
 Alpha  occ. eigenvalues --   -5.89078  -2.55865  -2.54409  -2.53998  -2.49366
 Alpha  occ. eigenvalues --   -1.58918  -1.58583  -1.58043  -1.57767  -1.56528
 Alpha  occ. eigenvalues --   -1.56398  -1.56026  -1.56006  -1.54971  -1.52391
 Alpha  occ. eigenvalues --   -1.51639  -1.51544  -1.16322  -1.14559  -1.14379
 Alpha  occ. eigenvalues --   -0.76284  -0.75081  -0.74250  -0.73983  -0.73519
 Alpha  occ. eigenvalues --   -0.72072  -0.71534  -0.70431  -0.59205  -0.57825
 Alpha  occ. eigenvalues --   -0.57271  -0.48820  -0.48416  -0.47944  -0.47695
 Alpha  occ. eigenvalues --   -0.47194  -0.46666  -0.46335  -0.46021  -0.45734
 Alpha  occ. eigenvalues --   -0.45020  -0.44506  -0.43805  -0.41128  -0.40735
 Alpha  occ. eigenvalues --   -0.39709  -0.39541  -0.39265  -0.39093  -0.38121
 Alpha  occ. eigenvalues --   -0.37132  -0.36514  -0.35213  -0.34769  -0.34117
 Alpha  occ. eigenvalues --   -0.33638  -0.33164  -0.32967  -0.32100  -0.31572
 Alpha  occ. eigenvalues --   -0.30913  -0.30155  -0.29376  -0.28364  -0.27765
 Alpha  occ. eigenvalues --   -0.26746  -0.25247  -0.24096  -0.23939  -0.22824
 Alpha virt. eigenvalues --   -0.15017  -0.14080  -0.13588  -0.13201  -0.12958
 Alpha virt. eigenvalues --   -0.12225  -0.10523  -0.09950  -0.09548  -0.07976
 Alpha virt. eigenvalues --   -0.07246  -0.04829  -0.04308  -0.03784  -0.03040

 Mulliken charges:
               1
     1  Mo   0.007582
     2  S    0.247986
     3  S   -0.059127
     4  S    0.101633
     5  S    0.019222
     6  H    0.099847
     7  Mo   0.100411
     8  S   -0.132066
     9  H    0.106195
    10  S   -0.022740
    11  Mo  -0.341786
    12  S   -0.057144
    13  H    0.076819
    14  S    0.096606
    15  H    0.099132
    16  Mo  -0.426471
    17  C    0.258466
    18  C    0.271141
    19  C    0.248929
    20  O   -0.217631
    21  O   -0.228104
    22  O   -0.248900
 Sum of Mulliken charges =  -0.00000

 Dipole moment (field-independent basis, Debye):
    X=             -0.9267    Y=             -2.6025    Z=              0.7202  Tot=              2.8549
 Quadrupole moment (field-independent basis, Debye-Ang):
   XX=           -237.4933   YY=           -242.4307   ZZ=           -216.2192
   XY=            -11.2479   XZ=             -2.7768   YZ=            -25.8027

  Exact polarizability:     529.711     -10.110     330.532      -7.614     -40.674     284.611
 Approx polarizability:    1398.230     -16.555     962.526     -83.009    -169.181     816.250

                      1                      2                      3
                      A                      A                      A
 Frequencies --     43.4733                49.1829                56.1478
 Red. masses --     13.5175                16.9124                15.3772
 Frc consts  --      0.0151                 0.0241                 0.0286
 IR Inten    --      0.1145                 0.2476                 0.0290

                      4                      5                      6
                      A                      A                      A
 Frequencies --     60.7986                67.7676                78.2844
 Red. masses --     16.8784                12.8991                17.5266
 Frc consts  --      0.0368                 0.0349                 0.0633
 IR Inten    --      0.3870                 0.4661                 0.7275

                      7                      8                      9
                      A                      A                      A
 Frequencies --     80.6262                83.7808                88.1275
 Red. masses --     15.6434                16.0342                16.0624
 Frc consts  --      0.0599                 0.0663                 0.0735
 IR Inten    --      1.9888                 0.4447                 0.5301

                     10                     11                     12
                      A                      A                      A
 Frequencies --    104.8269               106.2584               123.8287
 Red. masses --     22.5205                18.0716                17.1835
 Frc consts  --      0.1458                 0.1202                 0.1552
 IR Inten    --      0.2036                 0.5736                 1.2846

                     13                     14                     15
                      A                      A                      A
 Frequencies --    130.2890               141.0959               143.1151
 Red. masses --     29.8334                27.6821                13.1604
 Frc consts  --      0.2984                 0.3247                 0.1588
 IR Inten    --      1.9607                 4.8576                 0.0259

                     16                     17                     18
                      A                      A                      A
 Frequencies --    157.5096               167.8080               172.0610
 Red. masses --     16.5403                13.9611                 9.7405
 Frc consts  --      0.2418                 0.2316                 0.1699
 IR Inten    --      1.4370                 0.8985                 1.1097

                     19                     20                     21
                      A                      A                      A
 Frequencies --    195.3166               200.0374               210.6880
 Red. masses --     12.8860                 6.8487                 1.8320
 Frc consts  --      0.2896                 0.1615                 0.0479
 IR Inten    --      4.2158                 2.4112                17.5086

                     22                     23                     24
                      A                      A                      A
 Frequencies --    228.9874               236.7277               266.1360
 Red. masses --     12.4883                18.2439                19.1147
 Frc consts  --      0.3858                 0.6024                 0.7977
 IR Inten    --      4.8810                 5.7595                 3.5584

                     25                     26                     27
                      A                      A                      A
 Frequencies --    284.1709               285.3920               304.2172
 Red. masses --     23.7796                17.2586                27.9826
 Frc consts  --      1.1314                 0.8282                 1.5258
 IR Inten    --      0.4714                10.1471                 3.3827

                     28                     29                     30
                      A                      A                      A
 Frequencies --    310.0269               328.8220               340.5615
 Red. masses --     27.2599                29.6852                15.1989
 Frc consts  --      1.5437                 1.8911                 1.0386
 IR Inten    --      3.7108                 0.5049                 4.7959

                     31                     32                     33
                      A                      A                      A
 Frequencies --    345.0389               350.1671               359.3152
 Red. masses --      2.0110                25.5206                 3.6342
 Frc consts  --      0.1411                 1.8437                 0.2764
 IR Inten    --     15.1367                 5.6203                14.0412

                     34                     35                     36
                      A                      A                      A
 Frequencies --    369.3042               392.7778               406.9575
 Red. masses --      6.3368                15.4863                15.4164
 Frc consts  --      0.5092                 1.4076                 1.5043
 IR Inten    --     91.7165                25.5677                22.8930

                     37                     38                     39
                      A                      A                      A
 Frequencies --    419.5598               430.6514               435.7358
 Red. masses --     20.8792                14.1080                25.7224
 Frc consts  --      2.1655                 1.5416                 2.8774
 IR Inten    --      9.5019                27.5855                 2.5641

                     40                     41                     42
                      A                      A                      A
 Frequencies --    438.7144               451.8726               462.4287
 Red. masses --     12.8766                12.7720                14.5103
 Frc consts  --      1.4602                 1.5365                 1.8282
 IR Inten    --      5.9678                17.2083                19.6929

                     43                     44                     45
                      A                      A                      A
 Frequencies --    465.1492               470.7712               523.0018
 Red. masses --     14.4009                12.6136                 9.5364
 Frc consts  --      1.8358                 1.6471                 1.5369
 IR Inten    --      5.0711                16.3880                 9.0489

                     46                     47                     48
                      A                      A                      A
 Frequencies --    538.8538               542.4326               574.0867
 Red. masses --      1.1409                 8.4315                 2.7820
 Frc consts  --      0.1952                 1.4617                 0.5402
 IR Inten    --     12.3539                42.3476                42.4785

                     49                     50                     51
                      A                      A                      A
 Frequencies --    591.7060               621.4169               676.9964
 Red. masses --      1.1509                 1.5261                 1.0921
 Frc consts  --      0.2374                 0.3472                 0.2949
 IR Inten    --     21.6698                13.8429                13.0407

                     52                     53                     54
                      A                      A                      A
 Frequencies --    696.4985               716.5229              2039.3441
 Red. masses --      1.0486                 1.0502                13.3826
 Frc consts  --      0.2997                 0.3177                32.7923
 IR Inten    --     13.0063                10.9383               810.0134

                     55                     56                     57
                      A                      A                      A
 Frequencies --   2085.6273              2114.1294              2632.6806
 Red. masses --     13.3869                13.3711                 1.0385
 Frc consts  --     34.3087                35.2111                 4.2409
 IR Inten    --    514.5052              2251.1660                 0.9397

                     58                     59                     60
                      A                      A                      A
 Frequencies --   2643.0228              2655.7258              2673.2197
 Red. masses --      1.0388                 1.0379                 1.0386
 Frc consts  --      4.2755                 4.3131                 4.3728
 IR Inten    --      1.6884                 5.4927                 2.7372

 - Thermochemistry -
 -------------------
 Temperature   298.150 Kelvin.  Pressure   1.00000 Atm.
 Atom     1 has atomic number 42 and mass  97.90550

 Molecular mass:   735.41462 amu.
 Principal axes and moments of inertia in atomic units:
                           1         2         3
     Eigenvalues --  7779.46846********************
           X            0.99728   0.05900   0.04411
           Y           -0.07361   0.82149   0.56545
           Z           -0.00287  -0.56716   0.82360
 This molecule is an asymmetric top.
 Rotational symmetry number  1.
 Warning -- assumption of classical behavior for rotation
           may cause significant error
 Rotational temperatures (Kelvin)      0.01113     0.00528     0.00451
 Rotational constants (GHZ):           0.23199     0.10993     0.09394
 Zero-point vibrational energy     198399.3 (Joules/Mol)
                                   47.41857 (Kcal/Mol)
 Warning -- explicit consideration of  49 degrees of freedom as
           vibrations may cause significant error
 Vibrational temperatures:     62.55    70.76    80.78    87.48    97.50
          (Kelvin)            112.63   116.00   120.54   126.80   150.82
                              152.88   178.16   187.46   203.01   205.91
                              226.62   241.44   247.56   281.02   287.81
                              303.13   329.46   340.60   382.91   408.86
                              410.62   437.70   446.06   473.10   489.99
                              496.43   503.81   516.97   531.35   565.12
                              585.52   603.65   619.61   626.93   631.21
                              650.14   665.33   669.25   677.33   752.48
                              775.29   780.44   825.98   851.33   894.08
                              974.05  1002.11  1030.92  2934.16  3000.75
                             3041.76  3787.84  3802.72  3821.00  3846.17

 Zero-point correction=                           0.075566 (Hartree/Particle)
 Thermal correction to Energy=                    0.102792
 Thermal correction to Enthalpy=                  0.103736
 Thermal correction to Gibbs Free Energy=         0.016835
 Sum of electronic and zero-point Energies=          -3798.426944
 Sum of electronic and thermal Energies=             -3798.399718
 Sum of electronic and thermal Enthalpies=           -3798.398774
 Sum of electronic and thermal Free Energies=        -3798.485675

                     E (Thermal)             CV                S
                      KCal/Mol        Cal/Mol-Kelvin    Cal/Mol-Kelvin
 Total                   64.503             90.977            182.898
 Electronic               0.000              0.000              0.000
 Translational            0.889              2.981             45.665
 Rotational               0.889              2.981             36.149
 Vibrational             62.726             85.015            101.084
 Vibration     1          0.595              1.980              5.094
 Vibration     2          0.595              1.978              4.850
 Vibration     3          0.596              1.975              4.588
 Vibration     4          0.597              1.973              4.431
 Vibration     5          0.598              1.970              4.217
 Vibration     6          0.600              1.964              3.933
 Vibration     7          0.600              1.962              3.876
 Vibration     8          0.601              1.960              3.800
 Vibration     9          0.601              1.958              3.701
 Vibration    10          0.605              1.945              3.363
 Vibration    11          0.605              1.944              3.336
 Vibration    12          0.610              1.929              3.040
 Vibration    13          0.612              1.923              2.942
 Vibration    14          0.615              1.912              2.789
 Vibration    15          0.616              1.910              2.762
 Vibration    16          0.621              1.894              2.579
 Vibration    17          0.625              1.882              2.460
 Vibration    18          0.626              1.877              2.413
 Vibration    19          0.636              1.846              2.177
 Vibration    20          0.638              1.840              2.133
 Vibration    21          0.643              1.825              2.038
 Vibration    22          0.652              1.797              1.887
 Vibration    23          0.656              1.784              1.827
 Vibration    24          0.672              1.735              1.621
 Vibration    25          0.683              1.703              1.508
 Vibration    26          0.683              1.701              1.501
 Vibration    27          0.695              1.666              1.394
 Vibration    28          0.699              1.655              1.362
 Vibration    29          0.712              1.618              1.266
 Vibration    30          0.720              1.594              1.210
 Vibration    31          0.723              1.585              1.189
 Vibration    32          0.727              1.575              1.165
 Vibration    33          0.734              1.556              1.125
 Vibration    34          0.742              1.535              1.083
 Vibration    35          0.760              1.486              0.990
 Vibration    36          0.772              1.455              0.937
 Vibration    37          0.782              1.428              0.893
 Vibration    38          0.792              1.403              0.857
 Vibration    39          0.796              1.392              0.840
 Vibration    40          0.799              1.386              0.831
 Vibration    41          0.811              1.357              0.790
 Vibration    42          0.820              1.333              0.759
 Vibration    43          0.823              1.327              0.751
 Vibration    44          0.828              1.315              0.735
 Vibration    45          0.878              1.199              0.603
 Vibration    46          0.894              1.164              0.568
 Vibration    47          0.898              1.156              0.560
 Vibration    48          0.930              1.087              0.496
 Vibration    49          0.949              1.049              0.464

                           ! Non-Optimized Parameters !
 Normal termination of Gaussian 16 at Mon Dec  5 16:25:31 2022.
