 Gaussian 16, Revision C.01,
 Gaussian 16:  ES64L-G16RevC.01  3-Jul-2019

 ---------------------------------------
 # opt freq b3lyp/gen nosymm pseudo=read
 ---------------------------------------

 -------------------
 Title Card Required
 -------------------
 Symbolic Z-matrix:
 Charge =  0 Multiplicity = 1

 SCF Done:  E(RB3LYP) =  -3685.13363439     A.U. after   28 cycles
 SCF Done:  E(RB3LYP) =  -3685.13490524     A.U. after   17 cycles
 SCF Done:  E(RB3LYP) =  -3685.13534628     A.U. after   18 cycles
 SCF Done:  E(RB3LYP) =  -3685.13541935     A.U. after   16 cycles
 SCF Done:  E(RB3LYP) =  -3685.13543830     A.U. after   15 cycles
 SCF Done:  E(RB3LYP) =  -3685.13544267     A.U. after   14 cycles
 SCF Done:  E(RB3LYP) =  -3685.13544520     A.U. after   14 cycles
 SCF Done:  E(RB3LYP) =  -3685.13544614     A.U. after   14 cycles
 SCF Done:  E(RB3LYP) =  -3685.13544642     A.U. after   13 cycles
 SCF Done:  E(RB3LYP) =  -3685.13544658     A.U. after   13 cycles
 SCF Done:  E(RB3LYP) =  -3685.13544665     A.U. after   13 cycles
 Optimization completed.
    -- Stationary point found.
 Normal termination of Gaussian 16 at Mon Dec  5 17:14:56 2022.

 ------------------------------------------------------------------
 #N Geom=AllCheck Guess=TCheck SCRF=Check GenChk RB3LYP/ChkBas Freq
 ------------------------------------------------------------------

 Structure from the checkpoint file:  "/localscratch/chesayan/sagar/Gau-149023.chk"
 -------------------
 Title Card Required
 -------------------
 Charge =  0 Multiplicity = 1

                          Input orientation:
 ---------------------------------------------------------------------
 Center     Atomic      Atomic             Coordinates (Angstroms)
 Number     Number       Type             X           Y           Z
 ---------------------------------------------------------------------
      1         42           0       -0.397019    1.169909   11.719056
      2         16           0        0.880277    3.142847   12.023209
      3         16           0       -2.261834    1.956784   12.961096
      4         16           0       -1.264368    1.083323    9.479156
      5         16           0        0.990126   -0.761937   11.021075
      6          1           0        1.395327   -1.252529   12.215261
      7         42           0       -2.522025    2.589664   10.782080
      8         16           0       -4.749902    2.217211   10.133170
      9          1           0       -4.718680    2.994619    9.026404
     10         16           0       -1.711047    4.636495   10.352529
     11         42           0        0.084340    3.063075    9.811450
     12         16           0        1.222418    4.884884    8.734599
     13          1           0        0.590300    5.980076    9.205333
     14         16           0        1.807347    1.745801    8.498708
     15          1           0        1.126182    0.621774    8.180425
     16         42           0        2.284079    1.457087   10.956689
     17          6           0        3.596345    3.010366   10.794704
     18          6           0        2.999384    1.055579   12.805394
     19          8           0        4.384420    3.844007   10.721767
     20          8           0        3.432807    0.796662   13.845246
 ---------------------------------------------------------------------

 SCF Done:  E(RB3LYP) =  -3685.13544665     A.U. after    1 cycles

 Alpha  occ. eigenvalues --  -88.91169 -88.90488 -88.90072 -88.89197 -88.88657
 Alpha  occ. eigenvalues --  -88.88277 -88.88045 -88.85445 -19.25279 -19.25142
 Alpha  occ. eigenvalues --  -10.32392 -10.32265  -7.98660  -7.98156  -7.97636
 Alpha  occ. eigenvalues --   -7.96693  -7.96459  -7.96053  -7.95870  -7.93105
 Alpha  occ. eigenvalues --   -5.94686  -5.94612  -5.94577  -5.94168  -5.94117
 Alpha  occ. eigenvalues --   -5.94043  -5.93919  -5.93489  -5.93398  -5.92963
 Alpha  occ. eigenvalues --   -5.92583  -5.92480  -5.92449  -5.92424  -5.92311
 Alpha  occ. eigenvalues --   -5.92131  -5.92077  -5.91997  -5.91926  -5.91768
 Alpha  occ. eigenvalues --   -5.91550  -5.89387  -5.88988  -5.88817  -2.55186
 Alpha  occ. eigenvalues --   -2.53847  -2.53354  -2.50463  -1.58237  -1.57910
 Alpha  occ. eigenvalues --   -1.57379  -1.57220  -1.55999  -1.55799  -1.55430
 Alpha  occ. eigenvalues --   -1.55416  -1.54393  -1.53304  -1.52715  -1.52409
 Alpha  occ. eigenvalues --   -1.15485  -1.15213  -0.75951  -0.74730  -0.73936
 Alpha  occ. eigenvalues --   -0.73698  -0.73151  -0.71378  -0.70991  -0.70024
 Alpha  occ. eigenvalues --   -0.58767  -0.58042  -0.48480  -0.48089  -0.47577
 Alpha  occ. eigenvalues --   -0.47391  -0.47343  -0.46467  -0.45291  -0.44130
 Alpha  occ. eigenvalues --   -0.43296  -0.40885  -0.40417  -0.39994  -0.39305
 Alpha  occ. eigenvalues --   -0.39162  -0.38632  -0.37605  -0.36626  -0.36112
 Alpha  occ. eigenvalues --   -0.34819  -0.34494  -0.33777  -0.33150  -0.32642
 Alpha  occ. eigenvalues --   -0.32465  -0.31905  -0.31216  -0.30778  -0.30111
 Alpha  occ. eigenvalues --   -0.29000  -0.28206  -0.27522  -0.26396  -0.25118
 Alpha  occ. eigenvalues --   -0.24521  -0.23441  -0.22311
 Alpha virt. eigenvalues --   -0.14986  -0.14221  -0.13613  -0.12623  -0.12386
 Alpha virt. eigenvalues --   -0.11467  -0.10294  -0.09796  -0.09208  -0.08053
 Alpha virt. eigenvalues --   -0.07139  -0.06605  -0.04457  -0.04197  -0.03146

 Mulliken charges:
               1
     1  Mo   0.028107
     2  S    0.264627
     3  S   -0.068548
     4  S    0.091553
     5  S    0.000633
     6  H    0.096607
     7  Mo   0.080911
     8  S   -0.137567
     9  H    0.103725
    10  S   -0.032526
    11  Mo  -0.311830
    12  S   -0.069773
    13  H    0.076797
    14  S    0.071633
    15  H    0.099193
    16  Mo  -0.310370
    17  C    0.244341
    18  C    0.215086
    19  O   -0.210332
    20  O   -0.232267
 Sum of Mulliken charges =  -0.00000

 Dipole moment (field-independent basis, Debye):
    X=              0.6274    Y=             -2.9156    Z=              0.8263  Tot=              3.0947
 Quadrupole moment (field-independent basis, Debye-Ang):
   XX=           -223.4483   YY=           -230.1943   ZZ=           -204.5618
   XY=             -8.3290   XZ=             14.0163   YZ=            -30.1905

  Exact polarizability:     479.129      -9.990     312.742       7.772     -50.846     286.749
 Approx polarizability:    1337.341     -18.741     917.440     -35.339    -207.493     828.341

                      1                      2                      3
                      A                      A                      A
 Frequencies --     47.0445                51.6285                59.0646
 Red. masses --     12.8145                15.8939                14.7246
 Frc consts  --      0.0167                 0.0250                 0.0303
 IR Inten    --      0.3643                 0.2039                 0.1730

                      4                      5                      6
                      A                      A                      A
 Frequencies --     68.6970                76.7655                79.8650
 Red. masses --     17.0338                16.5145                13.8697
 Frc consts  --      0.0474                 0.0573                 0.0521
 IR Inten    --      0.1559                 0.7074                 0.9590

                      7                      8                      9
                      A                      A                      A
 Frequencies --     85.6324               102.2581               104.4690
 Red. masses --     15.9518                24.0082                18.5657
 Frc consts  --      0.0689                 0.1479                 0.1194
 IR Inten    --      0.2456                 0.1775                 0.1632

                     10                     11                     12
                      A                      A                      A
 Frequencies --    120.6403               132.5215               139.8879
 Red. masses --     18.5174                29.1397                13.1541
 Frc consts  --      0.1588                 0.3015                 0.1517
 IR Inten    --      1.4427                 0.2264                 0.0639

                     13                     14                     15
                      A                      A                      A
 Frequencies --    150.6642               156.5409               168.6693
 Red. masses --     29.6698                20.2437                12.1125
 Frc consts  --      0.3968                 0.2923                 0.2030
 IR Inten    --      1.3827                 1.8071                 0.1627

                     16                     17                     18
                      A                      A                      A
 Frequencies --    172.9269               193.7707               198.0422
 Red. masses --     13.0166                29.3487                 6.7909
 Frc consts  --      0.2293                 0.6493                 0.1569
 IR Inten    --      1.7716                 3.3841                 2.4939

                     19                     20                     21
                      A                      A                      A
 Frequencies --    204.9750               232.6633               235.7323
 Red. masses --      1.7106                 8.2350                26.2061
 Frc consts  --      0.0423                 0.2626                 0.8580
 IR Inten    --      9.4536                 4.8304                 1.3537

                     22                     23                     24
                      A                      A                      A
 Frequencies --    259.3133               280.0331               289.1745
 Red. masses --     18.7743                26.2613                18.9984
 Frc consts  --      0.7438                 1.2133                 0.9360
 IR Inten    --      5.7680                 0.2544                 8.7279

                     25                     26                     27
                      A                      A                      A
 Frequencies --    301.7160               321.5850               332.2069
 Red. masses --     24.7611                30.8135                28.9053
 Frc consts  --      1.3281                 1.8775                 1.8795
 IR Inten    --      4.8671                 2.3103                 2.7683

                     28                     29                     30
                      A                      A                      A
 Frequencies --    338.0239               350.2784               352.0043
 Red. masses --     22.8753                 3.9122                32.2300
 Frc consts  --      1.5400                 0.2828                 2.3529
 IR Inten    --     21.1346                19.0907                 9.8466

                     31                     32                     33
                      A                      A                      A
 Frequencies --    361.1848               370.5687               390.0427
 Red. masses --      3.1930                 2.6113                16.0825
 Frc consts  --      0.2454                 0.2113                 1.4415
 IR Inten    --     15.1881                67.6143                17.5398

                     34                     35                     36
                      A                      A                      A
 Frequencies --    415.3251               424.4226               432.1972
 Red. masses --     15.1858                27.3385                23.7996
 Frc consts  --      1.5434                 2.9015                 2.6193
 IR Inten    --     35.6270                 7.8496                 5.1815

                     37                     38                     39
                      A                      A                      A
 Frequencies --    448.0417               455.4714               461.7490
 Red. masses --     14.5595                 9.0320                20.7771
 Frc consts  --      1.7220                 1.1040                 2.6100
 IR Inten    --     18.9160                 2.3447                22.3204

                     40                     41                     42
                      A                      A                      A
 Frequencies --    466.1049               503.6623               546.7897
 Red. masses --     12.0694                14.6564                 1.1273
 Frc consts  --      1.5449                 2.1906                 0.1986
 IR Inten    --      8.2233                 8.3510                10.6807

                     43                     44                     45
                      A                      A                      A
 Frequencies --    554.3465               592.6231               633.0054
 Red. masses --      5.0877                 1.0848                 1.1672
 Frc consts  --      0.9212                 0.2245                 0.2756
 IR Inten    --     13.0808                 9.3081                 1.7203

                     46                     47                     48
                      A                      A                      A
 Frequencies --    687.0414               694.4537               716.4718
 Red. masses --      1.0903                 1.0481                 1.0608
 Frc consts  --      0.3032                 0.2978                 0.3208
 IR Inten    --     14.1984                14.1132                11.9714

                     49                     50                     51
                      A                      A                      A
 Frequencies --   2041.6622              2100.5362              2633.2614
 Red. masses --     13.3941                13.3826                 1.0386
 Frc consts  --     32.8951                34.7897                 4.2431
 IR Inten    --   1014.3104              1404.2112                 2.0379

                     52                     53                     54
                      A                      A                      A
 Frequencies --   2635.3740              2656.5212              2672.3432
 Red. masses --      1.0387                 1.0379                 1.0386
 Frc consts  --      4.2502                 4.3157                 4.3699
 IR Inten    --      2.3222                 4.9590                 3.4056

 - Thermochemistry -
 -------------------
 Temperature   298.150 Kelvin.  Pressure   1.00000 Atm.
 Atom     1 has atomic number 42 and mass  97.90550

 Molecular mass:   707.41970 amu.
 Principal axes and moments of inertia in atomic units:
                           1         2         3
     Eigenvalues --  7438.03497********************
           X            0.98885   0.14412   0.03751
           Y           -0.13467   0.75790   0.63831
           Z            0.06356  -0.63625   0.76886
 This molecule is an asymmetric top.
 Rotational symmetry number  1.
 Warning -- assumption of classical behavior for rotation
           may cause significant error
 Rotational temperatures (Kelvin)      0.01164     0.00633     0.00519
 Rotational constants (GHZ):           0.24264     0.13184     0.10812
 Zero-point vibrational energy     176449.2 (Joules/Mol)
                                   42.17236 (Kcal/Mol)
 Warning -- explicit consideration of  44 degrees of freedom as
           vibrations may cause significant error
 Vibrational temperatures:     67.69    74.28    84.98    98.84   110.45
          (Kelvin)            114.91   123.21   147.13   150.31   173.57
                              190.67   201.27   216.77   225.23   242.68
                              248.80   278.79   284.94   294.91   334.75
                              339.17   373.09   402.91   416.06   434.10
                              462.69   477.97   486.34   503.97   506.46
                              519.66   533.17   561.18   597.56   610.65
                              621.84   644.63   655.32   664.35   670.62
                              724.66   786.71   797.58   852.65   910.75
                              988.50   999.16  1030.84  2937.50  3022.20
                             3788.68  3791.72  3822.14  3844.91

 Zero-point correction=                           0.067206 (Hartree/Particle)
 Thermal correction to Energy=                    0.092108
 Thermal correction to Enthalpy=                  0.093052
 Thermal correction to Gibbs Free Energy=         0.011441
 Sum of electronic and zero-point Energies=          -3685.068241
 Sum of electronic and thermal Energies=             -3685.043339
 Sum of electronic and thermal Enthalpies=           -3685.042395
 Sum of electronic and thermal Free Energies=        -3685.124006

                     E (Thermal)             CV                S
                      KCal/Mol        Cal/Mol-Kelvin    Cal/Mol-Kelvin
 Total                   57.799             83.119            171.766
 Electronic               0.000              0.000              0.000
 Translational            0.889              2.981             45.550
 Rotational               0.889              2.981             35.784
 Vibrational             56.021             77.158             90.432
 Vibration     1          0.595              1.979              4.938
 Vibration     2          0.596              1.977              4.754
 Vibration     3          0.596              1.974              4.488
 Vibration     4          0.598              1.969              4.190
 Vibration     5          0.599              1.965              3.972
 Vibration     6          0.600              1.963              3.894
 Vibration     7          0.601              1.959              3.757
 Vibration     8          0.604              1.947              3.411
 Vibration     9          0.605              1.946              3.369
 Vibration    10          0.609              1.932              3.090
 Vibration    11          0.613              1.921              2.909
 Vibration    12          0.615              1.913              2.805
 Vibration    13          0.618              1.902              2.664
 Vibration    14          0.620              1.895              2.591
 Vibration    15          0.625              1.881              2.450
 Vibration    16          0.626              1.876              2.403
 Vibration    17          0.635              1.849              2.191
 Vibration    18          0.637              1.843              2.151
 Vibration    19          0.640              1.833              2.088
 Vibration    20          0.653              1.791              1.858
 Vibration    21          0.655              1.786              1.835
 Vibration    22          0.668              1.747              1.666
 Vibration    23          0.680              1.711              1.533
 Vibration    24          0.686              1.694              1.479
 Vibration    25          0.694              1.670              1.407
 Vibration    26          0.707              1.632              1.302
 Vibration    27          0.714              1.611              1.249
 Vibration    28          0.718              1.600              1.221
 Vibration    29          0.727              1.575              1.165
 Vibration    30          0.729              1.571              1.157
 Vibration    31          0.735              1.552              1.117
 Vibration    32          0.743              1.533              1.077
 Vibration    33          0.758              1.491              1.000
 Vibration    34          0.779              1.437              0.908
 Vibration    35          0.786              1.417              0.877
 Vibration    36          0.793              1.400              0.852
 Vibration    37          0.807              1.365              0.802
 Vibration    38          0.814              1.349              0.779
 Vibration    39          0.819              1.335              0.761
 Vibration    40          0.823              1.325              0.749
 Vibration    41          0.859              1.242              0.649
 Vibration    42          0.902              1.147              0.551
 Vibration    43          0.910              1.130              0.535
 Vibration    44          0.950              1.047              0.463

                           ! Non-Optimized Parameters !
 Normal termination of Gaussian 16 at Mon Dec  5 17:16:26 2022.
