 Gaussian 16, Revision C.01,
 Gaussian 16:  ES64L-G16RevC.01  3-Jul-2019

 ---------------------------------------
 # opt freq b3lyp/gen nosymm pseudo=read
 ---------------------------------------

 -------------------
 Title Card Required
 -------------------
 Symbolic Z-matrix:
 Charge =  0 Multiplicity = 1

 SCF Done:  E(RB3LYP) =  -3571.76939792     A.U. after   25 cycles
 SCF Done:  E(RB3LYP) =  -3571.77027744     A.U. after   18 cycles
 SCF Done:  E(RB3LYP) =  -3571.77054056     A.U. after   18 cycles
 SCF Done:  E(RB3LYP) =  -3571.77062269     A.U. after   16 cycles
 SCF Done:  E(RB3LYP) =  -3571.77065727     A.U. after   17 cycles
 SCF Done:  E(RB3LYP) =  -3571.77066139     A.U. after   15 cycles
 SCF Done:  E(RB3LYP) =  -3571.77066717     A.U. after   16 cycles
 SCF Done:  E(RB3LYP) =  -3571.77066809     A.U. after   14 cycles
 SCF Done:  E(RB3LYP) =  -3571.77066826     A.U. after   13 cycles
 SCF Done:  E(RB3LYP) =  -3571.77066843     A.U. after   13 cycles
 SCF Done:  E(RB3LYP) =  -3571.77066855     A.U. after   13 cycles
 SCF Done:  E(RB3LYP) =  -3571.77066864     A.U. after   13 cycles
 SCF Done:  E(RB3LYP) =  -3571.77066869     A.U. after   13 cycles
 SCF Done:  E(RB3LYP) =  -3571.77066873     A.U. after   12 cycles
 Optimization completed.
    -- Stationary point found.
 Normal termination of Gaussian 16 at Mon Dec  5 17:16:15 2022.

 ------------------------------------------------------------------
 #N Geom=AllCheck Guess=TCheck SCRF=Check GenChk RB3LYP/ChkBas Freq
 ------------------------------------------------------------------

 Structure from the checkpoint file:  "/localscratch/chesayan/sagar/Gau-187504.chk"
 -------------------
 Title Card Required
 -------------------
 Charge =  0 Multiplicity = 1

                          Input orientation:
 ---------------------------------------------------------------------
 Center     Atomic      Atomic             Coordinates (Angstroms)
 Number     Number       Type             X           Y           Z
 ---------------------------------------------------------------------
      1         42           0       -0.701467    0.941273   11.711639
      2         16           0        0.664982    2.849861   12.177763
      3         16           0       -2.544944    1.895401   12.903243
      4         16           0       -1.484795    0.991830    9.456093
      5         16           0        0.680354   -1.071512   11.099946
      6          1           0        0.949952   -1.653511   12.293622
      7         42           0       -2.691123    2.566017   10.732335
      8         16           0       -4.911174    2.349171    9.978441
      9          1           0       -4.767049    3.069422    8.842543
     10         16           0       -1.708940    4.561557   10.372476
     11         42           0       -0.018129    2.877812    9.931186
     12         16           0        1.441654    4.648469    9.169947
     13          1           0        0.904957    5.757111    9.720409
     14         16           0        1.710701    1.506101    8.685678
     15          1           0        1.012646    0.434511    8.248608
     16         42           0        1.900450    1.061100   11.161165
     17          6           0        2.593136    0.683967   13.004158
     18          8           0        3.027498    0.428353   14.047293
 ---------------------------------------------------------------------

 SCF Done:  E(RB3LYP) =  -3571.77066873     A.U. after    1 cycles

 Alpha  occ. eigenvalues --  -88.90786 -88.90773 -88.90194 -88.89279 -88.88172
 Alpha  occ. eigenvalues --  -88.88048 -88.87578 -88.85174 -19.24436 -10.31559
 Alpha  occ. eigenvalues --   -7.98405  -7.98356  -7.97865  -7.96848  -7.95954
 Alpha  occ. eigenvalues --   -7.95827  -7.95406  -7.92825  -5.94625  -5.94402
 Alpha  occ. eigenvalues --   -5.94385  -5.94291  -5.94179  -5.94154  -5.93866
 Alpha  occ. eigenvalues --   -5.93821  -5.93768  -5.93120  -5.92712  -5.92618
 Alpha  occ. eigenvalues --   -5.91985  -5.91933  -5.91841  -5.91786  -5.91778
 Alpha  occ. eigenvalues --   -5.91702  -5.91674  -5.91308  -5.91076  -5.89115
 Alpha  occ. eigenvalues --   -5.88730  -5.88510  -2.54750  -2.53690  -2.52987
 Alpha  occ. eigenvalues --   -2.50951  -1.57835  -1.57486  -1.57226  -1.56949
 Alpha  occ. eigenvalues --   -1.55925  -1.55527  -1.55233  -1.55175  -1.54078
 Alpha  occ. eigenvalues --   -1.53824  -1.52878  -1.52695  -1.14410  -0.76184
 Alpha  occ. eigenvalues --   -0.74987  -0.73937  -0.73405  -0.72917  -0.70990
 Alpha  occ. eigenvalues --   -0.70599  -0.69778  -0.57966  -0.47615  -0.46931
 Alpha  occ. eigenvalues --   -0.46837  -0.45857  -0.44864  -0.43089  -0.40686
 Alpha  occ. eigenvalues --   -0.40337  -0.40279  -0.39666  -0.38886  -0.38604
 Alpha  occ. eigenvalues --   -0.37459  -0.36538  -0.35950  -0.34900  -0.34439
 Alpha  occ. eigenvalues --   -0.33765  -0.33073  -0.32838  -0.32352  -0.32025
 Alpha  occ. eigenvalues --   -0.31203  -0.30774  -0.29918  -0.28758  -0.28245
 Alpha  occ. eigenvalues --   -0.27510  -0.26207  -0.24932  -0.24107  -0.23587
 Alpha  occ. eigenvalues --   -0.21641
 Alpha virt. eigenvalues --   -0.14798  -0.13785  -0.13281  -0.12412  -0.12038
 Alpha virt. eigenvalues --   -0.11529  -0.10316  -0.09783  -0.09530  -0.09081
 Alpha virt. eigenvalues --   -0.07554  -0.06341  -0.05723  -0.03995  -0.03761

 Mulliken charges:
               1
     1  Mo   0.044120
     2  S    0.243863
     3  S   -0.070654
     4  S    0.081804
     5  S   -0.006772
     6  H    0.098194
     7  Mo   0.075838
     8  S   -0.146019
     9  H    0.100740
    10  S   -0.036153
    11  Mo  -0.384202
    12  S   -0.077203
    13  H    0.077908
    14  S    0.015451
    15  H    0.107023
    16  Mo  -0.085389
    17  C    0.196510
    18  O   -0.235060
 Sum of Mulliken charges =  -0.00000

 Dipole moment (field-independent basis, Debye):
    X=              1.2869    Y=             -3.1049    Z=              0.3500  Tot=              3.3792
 Quadrupole moment (field-independent basis, Debye-Ang):
   XX=           -213.9336   YY=           -217.3500   ZZ=           -204.7236
   XY=             -3.6995   XZ=             20.1286   YZ=            -33.5002

  Exact polarizability:     437.020     -32.363     314.233      18.537     -48.042     280.594
 Approx polarizability:    1296.765     -87.496     901.548       9.996    -188.038     803.742

                      1                      2                      3
                      A                      A                      A
 Frequencies --     41.9362                49.3060                60.4341
 Red. masses --      7.2515                 8.8628                14.1444
 Frc consts  --      0.0075                 0.0127                 0.0304
 IR Inten    --      0.8612                 0.2521                 0.4396

                      4                      5                      6
                      A                      A                      A
 Frequencies --     73.0443                75.0908                89.0264
 Red. masses --     17.1839                14.2293                20.2335
 Frc consts  --      0.0540                 0.0473                 0.0945
 IR Inten    --      0.6514                 1.3205                 0.5088

                      7                      8                      9
                      A                      A                      A
 Frequencies --    100.1500               115.8320               133.0084
 Red. masses --     11.2575                16.8379                19.1194
 Frc consts  --      0.0665                 0.1331                 0.1993
 IR Inten    --      0.9417                 0.7748                 0.0473

                     10                     11                     12
                      A                      A                      A
 Frequencies --    136.7619               150.7586               154.8645
 Red. masses --     13.2117                21.7158                 8.6824
 Frc consts  --      0.1456                 0.2908                 0.1227
 IR Inten    --      0.4400                 0.4715                 1.3673

                     13                     14                     15
                      A                      A                      A
 Frequencies --    162.0669               172.1377               189.9029
 Red. masses --     17.6839                 5.7888                 2.5387
 Frc consts  --      0.2737                 0.1011                 0.0539
 IR Inten    --      0.7408                 2.3216                 6.1688

                     16                     17                     18
                      A                      A                      A
 Frequencies --    195.4613               205.3109               227.4546
 Red. masses --     16.0843                31.0414                12.3120
 Frc consts  --      0.3621                 0.7709                 0.3753
 IR Inten    --      2.2210                 1.1254                 3.8724

                     19                     20                     21
                      A                      A                      A
 Frequencies --    243.9694               262.9686               277.0268
 Red. masses --     19.0259                18.0260                25.1663
 Frc consts  --      0.6672                 0.7344                 1.1379
 IR Inten    --      0.7611                 5.8644                 1.5891

                     22                     23                     24
                      A                      A                      A
 Frequencies --    286.0740               301.8682               324.2625
 Red. masses --     21.1175                29.5268                36.3069
 Frc consts  --      1.0182                 1.5853                 2.2492
 IR Inten    --      6.1761                 4.8419                 2.1185

                     25                     26                     27
                      A                      A                      A
 Frequencies --    328.9971               337.6917               342.5529
 Red. masses --     30.3954                 4.5923                 8.2931
 Frc consts  --      1.9384                 0.3085                 0.5734
 IR Inten    --      2.0597                18.3069                19.9882

                     28                     29                     30
                      A                      A                      A
 Frequencies --    353.4015               357.3747               366.7733
 Red. masses --      7.9904                 2.8235                 5.3416
 Frc consts  --      0.5880                 0.2125                 0.4234
 IR Inten    --     14.4784                 6.6037                72.2741

                     31                     32                     33
                      A                      A                      A
 Frequencies --    421.6043               426.0954               431.1512
 Red. masses --     15.5267                22.5283                24.5744
 Frc consts  --      1.6261                 2.4099                 2.6915
 IR Inten    --     20.4269                16.4337                 4.7041

                     34                     35                     36
                      A                      A                      A
 Frequencies --    445.0019               458.7119               485.7543
 Red. masses --     14.6443                24.5531                13.5667
 Frc consts  --      1.7086                 3.0439                 1.8861
 IR Inten    --     20.6190                22.9048                 6.1788

                     37                     38                     39
                      A                      A                      A
 Frequencies --    499.3814               538.5514               569.6295
 Red. masses --      4.7341                 1.1262                 1.1872
 Frc consts  --      0.6956                 0.1925                 0.2270
 IR Inten    --      1.3978                13.6344                 1.3614

                     40                     41                     42
                      A                      A                      A
 Frequencies --    612.9757               677.3422               688.9979
 Red. masses --      1.0703                 1.0638                 1.0480
 Frc consts  --      0.2369                 0.2875                 0.2931
 IR Inten    --      8.5615                18.3549                 6.0542

                     43                     44                     45
                      A                      A                      A
 Frequencies --    726.8218              2032.1767              2608.0481
 Red. masses --      1.0564                13.3660                 1.0390
 Frc consts  --      0.3288                32.5218                 4.1638
 IR Inten    --      3.3747              1645.8841                 6.1642

                     46                     47                     48
                      A                      A                      A
 Frequencies --   2641.9517              2657.7963              2675.9929
 Red. masses --      1.0388                 1.0379                 1.0386
 Frc consts  --      4.2718                 4.3198                 4.3818
 IR Inten    --      2.1197                 4.6800                 3.0208

 - Thermochemistry -
 -------------------
 Temperature   298.150 Kelvin.  Pressure   1.00000 Atm.
 Atom     1 has atomic number 42 and mass  97.90550

 Molecular mass:   679.42479 amu.
 Principal axes and moments of inertia in atomic units:
                           1         2         3
     Eigenvalues --  6878.58341********************
           X            0.93251   0.34931   0.09170
           Y           -0.32627   0.70598   0.62860
           Z            0.15484  -0.61609   0.77230
 This molecule is an asymmetric top.
 Rotational symmetry number  1.
 Warning -- assumption of classical behavior for rotation
           may cause significant error
 Rotational temperatures (Kelvin)      0.01259     0.00718     0.00589
 Rotational constants (GHZ):           0.26237     0.14961     0.12268
 Zero-point vibrational energy     153800.8 (Joules/Mol)
                                   36.75928 (Kcal/Mol)
 Warning -- explicit consideration of  40 degrees of freedom as
           vibrations may cause significant error
 Vibrational temperatures:     60.34    70.94    86.95   105.09   108.04
          (Kelvin)            128.09   144.09   166.66   191.37   196.77
                              216.91   222.82   233.18   247.67   273.23
                              281.23   295.40   327.26   351.02   378.35
                              398.58   411.60   434.32   466.54   473.35
                              485.86   492.86   508.47   514.18   527.70
                              606.59   613.06   620.33   640.26   659.98
                              698.89   718.50   774.86   819.57   881.94
                              974.54   991.31  1045.73  2923.85  3752.40
                             3801.18  3823.98  3850.16

 Zero-point correction=                           0.058580 (Hartree/Particle)
 Thermal correction to Energy=                    0.081292
 Thermal correction to Enthalpy=                  0.082236
 Thermal correction to Gibbs Free Energy=         0.005131
 Sum of electronic and zero-point Energies=          -3571.712089
 Sum of electronic and thermal Energies=             -3571.689377
 Sum of electronic and thermal Enthalpies=           -3571.688433
 Sum of electronic and thermal Free Energies=        -3571.765538

                     E (Thermal)             CV                S
                      KCal/Mol        Cal/Mol-Kelvin    Cal/Mol-Kelvin
 Total                   51.011             75.372            162.281
 Electronic               0.000              0.000              0.000
 Translational            0.889              2.981             45.429
 Rotational               0.889              2.981             35.455
 Vibrational             49.234             69.411             81.397
 Vibration     1          0.595              1.980              5.165
 Vibration     2          0.595              1.978              4.845
 Vibration     3          0.597              1.973              4.443
 Vibration     4          0.599              1.967              4.070
 Vibration     5          0.599              1.966              4.015
 Vibration     6          0.602              1.957              3.681
 Vibration     7          0.604              1.949              3.451
 Vibration     8          0.608              1.936              3.169
 Vibration     9          0.613              1.920              2.902
 Vibration    10          0.614              1.917              2.849
 Vibration    11          0.618              1.902              2.663
 Vibration    12          0.620              1.897              2.612
 Vibration    13          0.622              1.889              2.526
 Vibration    14          0.626              1.877              2.412
 Vibration    15          0.633              1.854              2.229
 Vibration    16          0.636              1.846              2.175
 Vibration    17          0.640              1.832              2.085
 Vibration    18          0.651              1.799              1.899
 Vibration    19          0.659              1.773              1.774
 Vibration    20          0.670              1.741              1.642
 Vibration    21          0.678              1.716              1.552
 Vibration    22          0.684              1.700              1.497
 Vibration    23          0.694              1.670              1.407
 Vibration    24          0.709              1.627              1.289
 Vibration    25          0.712              1.618              1.265
 Vibration    26          0.718              1.600              1.223
 Vibration    27          0.722              1.590              1.200
 Vibration    28          0.730              1.568              1.151
 Vibration    29          0.733              1.560              1.134
 Vibration    30          0.740              1.541              1.093
 Vibration    31          0.784              1.423              0.887
 Vibration    32          0.788              1.413              0.872
 Vibration    33          0.792              1.402              0.855
 Vibration    34          0.804              1.372              0.811
 Vibration    35          0.817              1.342              0.770
 Vibration    36          0.842              1.282              0.695
 Vibration    37          0.855              1.251              0.660
 Vibration    38          0.894              1.165              0.568
 Vibration    39          0.926              1.097              0.505
 Vibration    40          0.972              1.004              0.428

                           ! Non-Optimized Parameters !
 Normal termination of Gaussian 16 at Mon Dec  5 17:17:25 2022.
