 Gaussian 16, Revision C.01,
 Gaussian 16:  ES64L-G16RevC.01  3-Jul-2019

 ---------------------------------------
 # opt freq b3lyp/gen nosymm pseudo=read
 ---------------------------------------

 -------------------
 Title Card Required
 -------------------
 Symbolic Z-matrix:
 Charge =  0 Multiplicity = 1

 SCF Done:  E(RB3LYP) =  -3458.39466126     A.U. after   30 cycles
 SCF Done:  E(RB3LYP) =  -3458.39509934     A.U. after   18 cycles
 SCF Done:  E(RB3LYP) =  -3458.39528987     A.U. after   20 cycles
 SCF Done:  E(RB3LYP) =  -3458.39530845     A.U. after   18 cycles
 SCF Done:  E(RB3LYP) =  -3458.39532624     A.U. after   17 cycles
 SCF Done:  E(RB3LYP) =  -3458.39533921     A.U. after   17 cycles
 SCF Done:  E(RB3LYP) =  -3458.39535337     A.U. after   18 cycles
 SCF Done:  E(RB3LYP) =  -3458.39536166     A.U. after   18 cycles
 SCF Done:  E(RB3LYP) =  -3458.39536517     A.U. after   17 cycles
 SCF Done:  E(RB3LYP) =  -3458.39537351     A.U. after   17 cycles
 SCF Done:  E(RB3LYP) =  -3458.39541366     A.U. after   17 cycles
 SCF Done:  E(RB3LYP) =  -3458.39544184     A.U. after   19 cycles
 SCF Done:  E(RB3LYP) =  -3458.39544827     A.U. after   17 cycles
 SCF Done:  E(RB3LYP) =  -3458.39545666     A.U. after   18 cycles
 SCF Done:  E(RB3LYP) =  -3458.39546118     A.U. after   17 cycles
 SCF Done:  E(RB3LYP) =  -3458.39546472     A.U. after   17 cycles
 SCF Done:  E(RB3LYP) =  -3458.39546562     A.U. after   16 cycles
 SCF Done:  E(RB3LYP) =  -3458.39546660     A.U. after   16 cycles
 SCF Done:  E(RB3LYP) =  -3458.39546682     A.U. after   15 cycles
 Optimization completed.
    -- Stationary point found.
 Normal termination of Gaussian 16 at Mon Dec  5 17:18:42 2022.

 ------------------------------------------------------------------
 #N Geom=AllCheck Guess=TCheck SCRF=Check GenChk RB3LYP/ChkBas Freq
 ------------------------------------------------------------------

 Structure from the checkpoint file:  "/localscratch/chesayan/sagar/Gau-26654.chk"
 -------------------
 Title Card Required
 -------------------
 Charge =  0 Multiplicity = 1

                          Input orientation:
 ---------------------------------------------------------------------
 Center     Atomic      Atomic             Coordinates (Angstroms)
 Number     Number       Type             X           Y           Z
 ---------------------------------------------------------------------
      1         42           0       -0.007353    1.063869   11.437764
      2         16           0        0.993420    3.178061   12.007838
      3         16           0       -1.909172    1.452770   12.820029
      4         16           0       -0.954887    1.063696    9.232822
      5         16           0        1.852664   -0.571655   10.879990
      6          1           0        2.388256   -0.958277   12.071399
      7         42           0       -2.342568    2.272640   10.725545
      8         16           0       -4.529957    1.608100   10.126461
      9          1           0       -4.723774    2.657393    9.294235
     10         16           0       -1.784099    4.420774   10.505337
     11         42           0        0.204425    3.139974    9.744843
     12         16           0        1.073313    5.175300    8.810223
     13          1           0        0.273347    6.143249    9.304791
     14         16           0        2.101483    2.127575    8.369400
     15          1           0        1.553291    0.968192    7.929447
     16         42           0        2.411517    1.794040   10.727431
 ---------------------------------------------------------------------

 SCF Done:  E(RB3LYP) =  -3458.39546682     A.U. after    1 cycles

 Alpha  occ. eigenvalues --  -88.90495 -88.89961 -88.89873 -88.89326 -88.87118
 Alpha  occ. eigenvalues --  -88.86953 -88.86732 -88.85077  -7.98099  -7.97620
 Alpha  occ. eigenvalues --   -7.97565  -7.97003  -7.94897  -7.94737  -7.94550
 Alpha  occ. eigenvalues --   -7.92735  -5.94385  -5.93904  -5.93894  -5.93818
 Alpha  occ. eigenvalues --   -5.93639  -5.93552  -5.93511  -5.93398  -5.93370
 Alpha  occ. eigenvalues --   -5.92998  -5.92970  -5.92903  -5.90937  -5.90875
 Alpha  occ. eigenvalues --   -5.90822  -5.90773  -5.90724  -5.90703  -5.90577
 Alpha  occ. eigenvalues --   -5.90446  -5.90222  -5.89017  -5.88613  -5.88455
 Alpha  occ. eigenvalues --   -2.53840  -2.52603  -2.52270  -2.50811  -1.56908
 Alpha  occ. eigenvalues --   -1.56826  -1.56528  -1.56021  -1.55070  -1.54795
 Alpha  occ. eigenvalues --   -1.54414  -1.54290  -1.53773  -1.53146  -1.52639
 Alpha  occ. eigenvalues --   -1.51964  -0.75931  -0.75157  -0.73456  -0.72674
 Alpha  occ. eigenvalues --   -0.72145  -0.70318  -0.69785  -0.69004  -0.46297
 Alpha  occ. eigenvalues --   -0.45185  -0.42243  -0.40985  -0.39867  -0.39524
 Alpha  occ. eigenvalues --   -0.39105  -0.38616  -0.38041  -0.37021  -0.35691
 Alpha  occ. eigenvalues --   -0.35188  -0.34308  -0.33808  -0.33512  -0.32974
 Alpha  occ. eigenvalues --   -0.32597  -0.32410  -0.31698  -0.30587  -0.30238
 Alpha  occ. eigenvalues --   -0.29868  -0.28209  -0.27727  -0.27065  -0.25469
 Alpha  occ. eigenvalues --   -0.24402  -0.23550  -0.22515  -0.20459
 Alpha virt. eigenvalues --   -0.14094  -0.13364  -0.12195  -0.11788  -0.11584
 Alpha virt. eigenvalues --   -0.11154  -0.10092  -0.09247  -0.09120  -0.08805
 Alpha virt. eigenvalues --   -0.08267  -0.06455  -0.05489  -0.03832  -0.02733

 Mulliken charges:
               1
     1  Mo   0.074208
     2  S    0.168047
     3  S   -0.089533
     4  S    0.058672
     5  S   -0.077393
     6  H    0.081068
     7  Mo   0.067930
     8  S   -0.151464
     9  H    0.101498
    10  S   -0.062811
    11  Mo  -0.366183
    12  S   -0.094825
    13  H    0.078799
    14  S    0.002822
    15  H    0.107287
    16  Mo   0.101877
 Sum of Mulliken charges =  -0.00000

 Dipole moment (field-independent basis, Debye):
    X=              4.4033    Y=             -2.5466    Z=              1.2341  Tot=              5.2342
 Quadrupole moment (field-independent basis, Debye-Ang):
   XX=           -191.4484   YY=           -211.7249   ZZ=           -173.9016
   XY=             -1.6438   XZ=             58.7266   YZ=            -24.4653

  Exact polarizability:     410.604      -0.108     303.809     -20.353     -37.805     250.281
 Approx polarizability:    1300.660      27.921     870.737     -94.207    -155.247     700.840

                      1                      2                      3
                      A                      A                      A
 Frequencies --     31.1973                59.0646                62.8533
 Red. masses --      9.2878                23.7289                14.0050
 Frc consts  --      0.0053                 0.0488                 0.0326
 IR Inten    --      1.9974                 0.7180                 1.6138

                      4                      5                      6
                      A                      A                      A
 Frequencies --     73.0132                91.9012               106.0727
 Red. masses --      7.7436                10.0299                 5.0138
 Frc consts  --      0.0243                 0.0499                 0.0332
 IR Inten    --      2.7637                 2.7209                 3.8409

                      7                      8                      9
                      A                      A                      A
 Frequencies --    120.3669               134.4380               144.2624
 Red. masses --      3.9670                 6.1249                19.5987
 Frc consts  --      0.0339                 0.0652                 0.2403
 IR Inten    --      3.6948                 4.6003                 0.9257

                     10                     11                     12
                      A                      A                      A
 Frequencies --    153.2459               154.5663               170.3229
 Red. masses --      8.5552                 6.7441                26.8239
 Frc consts  --      0.1184                 0.0949                 0.4585
 IR Inten    --      4.2527                 0.7221                 0.1474

                     13                     14                     15
                      A                      A                      A
 Frequencies --    176.8707               197.4743               201.5168
 Red. masses --     11.7746                14.8521                34.4252
 Frc consts  --      0.2170                 0.3412                 0.8237
 IR Inten    --      1.0431                 1.0358                 3.7055

                     16                     17                     18
                      A                      A                      A
 Frequencies --    230.1040               238.1033               253.4712
 Red. masses --     19.9026                24.4934                31.4614
 Frc consts  --      0.6209                 0.8181                 1.1909
 IR Inten    --      1.5970                 1.3855                 0.8926

                     19                     20                     21
                      A                      A                      A
 Frequencies --    276.2843               280.2694               310.3711
 Red. masses --     25.9057                26.2848                32.9031
 Frc consts  --      1.1651                 1.2165                 1.8675
 IR Inten    --      1.7862                 5.6524                 1.4241

                     22                     23                     24
                      A                      A                      A
 Frequencies --    318.5667               329.5556               337.7512
 Red. masses --     34.5427                25.9916                19.8043
 Frc consts  --      2.0654                 1.6632                 1.3311
 IR Inten    --      3.0590                 2.9522                11.0065

                     25                     26                     27
                      A                      A                      A
 Frequencies --    341.6464               348.3367               359.4199
 Red. masses --     27.0353                30.6155                15.1046
 Frc consts  --      1.8592                 2.1887                 1.1496
 IR Inten    --     12.7506                23.0214                54.1734

                     28                     29                     30
                      A                      A                      A
 Frequencies --    385.0759               422.7082               430.7747
 Red. masses --      1.2260                15.0638                28.6541
 Frc consts  --      0.1071                 1.5859                 3.1328
 IR Inten    --     21.3104                 6.7746                 4.2581

                     31                     32                     33
                      A                      A                      A
 Frequencies --    441.5008               460.5908               553.8265
 Red. masses --     18.9167                15.3269                 1.1351
 Frc consts  --      2.1725                 1.9157                 0.2051
 IR Inten    --     20.3111                24.0787                11.1537

                     34                     35                     36
                      A                      A                      A
 Frequencies --    566.3333               614.2663               668.7140
 Red. masses --      1.0701                 1.0592                 1.0581
 Frc consts  --      0.2022                 0.2355                 0.2788
 IR Inten    --      8.2337                 5.2206                 4.5036

                     37                     38                     39
                      A                      A                      A
 Frequencies --    683.7714               702.7637              2537.2336
 Red. masses --      1.0479                 1.0493                 1.0385
 Frc consts  --      0.2887                 0.3053                 3.9388
 IR Inten    --     12.6566                 3.6363                39.2502

                     40                     41                     42
                      A                      A                      A
 Frequencies --   2594.4186              2654.2741              2669.2883
 Red. masses --      1.0389                 1.0379                 1.0386
 Frc consts  --      4.1200                 4.3081                 4.3601
 IR Inten    --      8.4713                 5.1613                 3.8520

 - Thermochemistry -
 -------------------
 Temperature   298.150 Kelvin.  Pressure   1.00000 Atm.
 Atom     1 has atomic number 42 and mass  97.90550

 Molecular mass:   651.42987 amu.
 Principal axes and moments of inertia in atomic units:
                           1         2         3
     Eigenvalues --  6158.06981********************
           X            0.99362  -0.00824   0.11251
           Y           -0.05156   0.85388   0.51791
           Z           -0.10034  -0.52040   0.84800
 This molecule is an asymmetric top.
 Rotational symmetry number  1.
 Warning -- assumption of classical behavior for rotation
           may cause significant error
 Rotational temperatures (Kelvin)      0.01407     0.00849     0.00669
 Rotational constants (GHZ):           0.29307     0.17687     0.13936
 Zero-point vibrational energy     130910.9 (Joules/Mol)
                                   31.28845 (Kcal/Mol)
 Warning -- explicit consideration of  35 degrees of freedom as
           vibrations may cause significant error
 Vibrational temperatures:     44.89    84.98    90.43   105.05   132.23
          (Kelvin)            152.61   173.18   193.43   207.56   220.49
                              222.39   245.06   254.48   284.12   289.94
                              331.07   342.58   364.69   397.51   403.25
                              446.55   458.35   474.16   485.95   491.55
                              501.18   517.13   554.04   608.18   619.79
                              635.22   662.69   796.83   814.83   883.79
                              962.13   983.79  1011.12  3650.51  3732.79
                             3818.91  3840.51

 Zero-point correction=                           0.049861 (Hartree/Particle)
 Thermal correction to Energy=                    0.070417
 Thermal correction to Enthalpy=                  0.071361
 Thermal correction to Gibbs Free Energy=        -0.001323
 Sum of electronic and zero-point Energies=          -3458.345606
 Sum of electronic and thermal Energies=             -3458.325050
 Sum of electronic and thermal Enthalpies=           -3458.324106
 Sum of electronic and thermal Free Energies=        -3458.396790

                     E (Thermal)             CV                S
                      KCal/Mol        Cal/Mol-Kelvin    Cal/Mol-Kelvin
 Total                   44.187             67.601            152.977
 Electronic               0.000              0.000              0.000
 Translational            0.889              2.981             45.304
 Rotational               0.889              2.981             35.052
 Vibrational             42.410             61.639             72.621
 Vibration     1          0.594              1.983              5.752
 Vibration     2          0.596              1.974              4.488
 Vibration     3          0.597              1.972              4.366
 Vibration     4          0.599              1.967              4.070
 Vibration     5          0.602              1.955              3.619
 Vibration     6          0.605              1.944              3.340
 Vibration     7          0.609              1.932              3.094
 Vibration     8          0.613              1.919              2.882
 Vibration     9          0.616              1.909              2.747
 Vibration    10          0.619              1.899              2.632
 Vibration    11          0.620              1.898              2.615
 Vibration    12          0.625              1.879              2.432
 Vibration    13          0.628              1.871              2.361
 Vibration    14          0.637              1.843              2.157
 Vibration    15          0.638              1.838              2.119
 Vibration    16          0.652              1.795              1.878
 Vibration    17          0.656              1.782              1.817
 Vibration    18          0.665              1.757              1.706
 Vibration    19          0.678              1.717              1.557
 Vibration    20          0.680              1.710              1.532
 Vibration    21          0.699              1.654              1.360
 Vibration    22          0.705              1.638              1.317
 Vibration    23          0.712              1.616              1.262
 Vibration    24          0.718              1.600              1.223
 Vibration    25          0.721              1.592              1.204
 Vibration    26          0.726              1.579              1.174
 Vibration    27          0.734              1.556              1.125
 Vibration    28          0.754              1.502              1.019
 Vibration    29          0.785              1.421              0.883
 Vibration    30          0.792              1.403              0.856
 Vibration    31          0.801              1.380              0.822
 Vibration    32          0.818              1.337              0.764
 Vibration    33          0.909              1.131              0.536
 Vibration    34          0.922              1.104              0.511
 Vibration    35          0.974              1.002              0.426

                           ! Non-Optimized Parameters !
 Normal termination of Gaussian 16 at Mon Dec  5 17:19:37 2022.
