 Gaussian 16, Revision C.01,
 Gaussian 16:  ES64L-G16RevC.01  3-Jul-2019

 ---------------------------------------
 # opt freq b3lyp/gen nosymm pseudo=read
 ---------------------------------------

 -------------------
 Title Card Required
 -------------------
 Symbolic Z-matrix:
 Charge =  0 Multiplicity = 1

 SCF Done:  E(RB3LYP) =  -3857.81964086     A.U. after   27 cycles
 SCF Done:  E(RB3LYP) =  -3857.82027164     A.U. after   18 cycles
 SCF Done:  E(RB3LYP) =  -3857.82044658     A.U. after   17 cycles
 SCF Done:  E(RB3LYP) =  -3857.82051958     A.U. after   17 cycles
 SCF Done:  E(RB3LYP) =  -3857.82053295     A.U. after   15 cycles
 SCF Done:  E(RB3LYP) =  -3857.82054455     A.U. after   16 cycles
 SCF Done:  E(RB3LYP) =  -3857.82054888     A.U. after   15 cycles
 SCF Done:  E(RB3LYP) =  -3857.82055296     A.U. after   14 cycles
 SCF Done:  E(RB3LYP) =  -3857.82055625     A.U. after   15 cycles
 SCF Done:  E(RB3LYP) =  -3857.82055828     A.U. after   15 cycles
 SCF Done:  E(RB3LYP) =  -3857.82055989     A.U. after   15 cycles
 SCF Done:  E(RB3LYP) =  -3857.82056037     A.U. after   13 cycles
 SCF Done:  E(RB3LYP) =  -3857.82056055     A.U. after   13 cycles
 SCF Done:  E(RB3LYP) =  -3857.82056062     A.U. after   12 cycles
 Optimization completed.
    -- Stationary point found.
 Normal termination of Gaussian 16 at Mon Dec  5 17:17:37 2022.

 ------------------------------------------------------------------
 #N Geom=AllCheck Guess=TCheck SCRF=Check GenChk RB3LYP/ChkBas Freq
 ------------------------------------------------------------------

 Structure from the checkpoint file:  "/localscratch/chesayan/sagar/Gau-6742.chk"
 -------------------
 Title Card Required
 -------------------
 Charge =  0 Multiplicity = 1

                          Input orientation:
 ---------------------------------------------------------------------
 Center     Atomic      Atomic             Coordinates (Angstroms)
 Number     Number       Type             X           Y           Z
 ---------------------------------------------------------------------
      1         42           0        0.228779    1.444831   11.464020
      2         16           0        1.235041    3.603412   11.646119
      3         16           0       -1.429209    1.962083   13.077367
      4         16           0       -1.022321    1.241102    9.462735
      5         16           0        1.910479   -0.265427   10.655164
      6          1           0        2.601414   -0.687231   11.753083
      7         42           0       -2.216185    2.605810   10.996363
      8         16           0       -4.301618    1.772459   10.318498
      9          1           0       -4.065320    0.726833    9.500570
     10         16           0       -1.732130    4.742466   10.464784
     11         42           0        0.094451    3.397110    9.585938
     12         16           0        0.994245    5.350554    8.469378
     13          1           0        0.381772    6.372570    9.101351
     14         16           0        1.763840    2.261811    8.025742
     15          1           0        1.198168    1.063156    7.749753
     16         42           0        2.504534    2.081834   10.339845
     17         16           0        4.234597    1.989427   12.207833
     18          1           0        5.445301    2.136690   11.618954
     19          1           0        4.454678    0.674601   12.470320
 ---------------------------------------------------------------------

 SCF Done:  E(RB3LYP) =  -3857.82056062     A.U. after    1 cycles

 Alpha  occ. eigenvalues --  -88.95414 -88.90036 -88.89319 -88.88956 -88.88724
 Alpha  occ. eigenvalues --  -88.85858 -88.85837 -88.85718 -88.83937  -8.02990
 Alpha  occ. eigenvalues --   -7.97578  -7.96993  -7.96531  -7.96389  -7.93643
 Alpha  occ. eigenvalues --   -7.93637  -7.93558  -7.91592  -5.99306  -5.99053
 Alpha  occ. eigenvalues --   -5.98506  -5.93885  -5.93379  -5.93369  -5.92997
 Alpha  occ. eigenvalues --   -5.92957  -5.92884  -5.92796  -5.92390  -5.92378
 Alpha  occ. eigenvalues --   -5.92336  -5.92321  -5.92307  -5.89834  -5.89661
 Alpha  occ. eigenvalues --   -5.89659  -5.89627  -5.89597  -5.89495  -5.89491
 Alpha  occ. eigenvalues --   -5.89444  -5.89241  -5.87887  -5.87500  -5.87270
 Alpha  occ. eigenvalues --   -2.52333  -2.51920  -2.51660  -2.50410  -1.56078
 Alpha  occ. eigenvalues --   -1.55634  -1.55353  -1.54675  -1.54268  -1.54067
 Alpha  occ. eigenvalues --   -1.53620  -1.53421  -1.53011  -1.52542  -1.52215
 Alpha  occ. eigenvalues --   -1.51820  -0.82326  -0.75276  -0.74329  -0.72742
 Alpha  occ. eigenvalues --   -0.72043  -0.71010  -0.69250  -0.68676  -0.68029
 Alpha  occ. eigenvalues --   -0.51776  -0.46197  -0.45747  -0.44329  -0.42125
 Alpha  occ. eigenvalues --   -0.39548  -0.39339  -0.38941  -0.38479  -0.37723
 Alpha  occ. eigenvalues --   -0.37187  -0.36594  -0.35931  -0.34962  -0.34452
 Alpha  occ. eigenvalues --   -0.33410  -0.32672  -0.32449  -0.31800  -0.31696
 Alpha  occ. eigenvalues --   -0.30899  -0.30638  -0.29755  -0.28757  -0.27716
 Alpha  occ. eigenvalues --   -0.27564  -0.26856  -0.26550  -0.24464  -0.23858
 Alpha  occ. eigenvalues --   -0.22928  -0.21950  -0.20020
 Alpha virt. eigenvalues --   -0.13223  -0.12236  -0.11864  -0.10902  -0.10409
 Alpha virt. eigenvalues --   -0.09598  -0.08838  -0.08098  -0.07768  -0.07557
 Alpha virt. eigenvalues --   -0.06955  -0.05541  -0.05041  -0.04671  -0.03624

 Mulliken charges:
               1
     1  Mo   0.069428
     2  S    0.222653
     3  S   -0.118411
     4  S    0.050620
     5  S   -0.023580
     6  H    0.049748
     7  Mo   0.063508
     8  S   -0.160407
     9  H    0.089522
    10  S   -0.068686
    11  Mo  -0.356485
    12  S   -0.104914
    13  H    0.078594
    14  S   -0.009548
    15  H    0.106168
    16  Mo  -0.131086
    17  S    0.013932
    18  H    0.121968
    19  H    0.106977
 Sum of Mulliken charges =  -0.00000

 Dipole moment (field-independent basis, Debye):
    X=              8.0749    Y=             -4.3657    Z=              1.9258  Tot=              9.3794
 Quadrupole moment (field-independent basis, Debye-Ang):
   XX=           -186.0801   YY=           -234.4612   ZZ=           -178.9578
   XY=             10.8328   XZ=             98.6799   YZ=            -37.8562

  Exact polarizability:     451.889      -9.064     310.874      -4.589     -39.375     284.475
 Approx polarizability:    1289.274     -14.107     888.038    -117.750    -167.582     814.494

                      1                      2                      3
                      A                      A                      A
 Frequencies --     41.7897                57.1376                63.8772
 Red. masses --     10.1549                12.7915                13.2412
 Frc consts  --      0.0104                 0.0246                 0.0318
 IR Inten    --      0.1230                 1.3497                 1.4547

                      4                      5                      6
                      A                      A                      A
 Frequencies --     80.9855                96.4503                99.7988
 Red. masses --     10.7657                 9.9654                16.5101
 Frc consts  --      0.0416                 0.0546                 0.0969
 IR Inten    --      0.7934                 0.9470                 0.3613

                      7                      8                      9
                      A                      A                      A
 Frequencies --    111.6901               122.1362               127.7027
 Red. masses --      2.9767                 6.8005                 2.7410
 Frc consts  --      0.0219                 0.0598                 0.0263
 IR Inten    --      9.2279                 0.4316                 5.4475

                     10                     11                     12
                      A                      A                      A
 Frequencies --    137.3345               149.6630               154.7297
 Red. masses --     20.9743                 3.7805                13.9783
 Frc consts  --      0.2331                 0.0499                 0.1972
 IR Inten    --      0.9069                 5.3925                 0.0414

                     13                     14                     15
                      A                      A                      A
 Frequencies --    156.9282               166.9061               182.0843
 Red. masses --     11.4035                22.2869                23.0203
 Frc consts  --      0.1655                 0.3658                 0.4497
 IR Inten    --      0.3418                 0.2378                 0.4755

                     16                     17                     18
                      A                      A                      A
 Frequencies --    198.5544               206.0431               213.5285
 Red. masses --     22.6948                10.6426                 2.8363
 Frc consts  --      0.5272                 0.2662                 0.0762
 IR Inten    --      0.8206                 0.3579                 5.5391

                     19                     20                     21
                      A                      A                      A
 Frequencies --    220.6812               236.4279               244.2503
 Red. masses --      4.1757                21.8921                 6.7753
 Frc consts  --      0.1198                 0.7210                 0.2382
 IR Inten    --     11.9546                 5.2273                 0.9285

                     22                     23                     24
                      A                      A                      A
 Frequencies --    259.1692               273.6457               294.2818
 Red. masses --      7.9168                24.0031                16.4402
 Frc consts  --      0.3133                 1.0590                 0.8389
 IR Inten    --      5.6498                11.4616                 5.6572

                     25                     26                     27
                      A                      A                      A
 Frequencies --    315.8472               329.4994               334.2485
 Red. masses --     18.9413                30.2757                11.8431
 Frc consts  --      1.1133                 1.9367                 0.7796
 IR Inten    --      1.8882                 1.1994                 9.2032

                     28                     29                     30
                      A                      A                      A
 Frequencies --    341.2122               341.5645               350.2108
 Red. masses --      9.5481                 4.2680                 2.2484
 Frc consts  --      0.6550                 0.2934                 0.1625
 IR Inten    --     17.3256                34.1730                13.6265

                     31                     32                     33
                      A                      A                      A
 Frequencies --    354.9099               361.4240               420.4818
 Red. masses --     37.7931                 9.1290                24.1959
 Frc consts  --      2.8048                 0.7026                 2.5205
 IR Inten    --     50.8551                 4.2180                12.4283

                     34                     35                     36
                      A                      A                      A
 Frequencies --    433.6122               444.1179               454.9492
 Red. masses --     21.2040                27.6204                22.1570
 Frc consts  --      2.3489                 3.2098                 2.7020
 IR Inten    --      5.0204                 9.9723                32.9205

                     37                     38                     39
                      A                      A                      A
 Frequencies --    507.5412               563.4213               585.3564
 Red. masses --      1.1149                 1.0514                 1.0649
 Frc consts  --      0.1692                 0.1966                 0.2150
 IR Inten    --      5.3605                 0.4735                11.2297

                     40                     41                     42
                      A                      A                      A
 Frequencies --    617.8545               628.4993               674.4628
 Red. masses --      1.0599                 1.0642                 1.0514
 Frc consts  --      0.2384                 0.2477                 0.2818
 IR Inten    --      6.1766                14.5631                13.0085

                     43                     44                     45
                      A                      A                      A
 Frequencies --    687.5525               735.7087              1223.1991
 Red. masses --      1.0530                 1.0486                 1.0362
 Frc consts  --      0.2933                 0.3344                 0.9135
 IR Inten    --      6.4356                 2.7944                54.9013

                     46                     47                     48
                      A                      A                      A
 Frequencies --   2505.3024              2574.0815              2615.1389
 Red. masses --      1.0390                 1.0374                 1.0388
 Frc consts  --      3.8424                 4.0500                 4.1857
 IR Inten    --    127.6835                83.3743                 5.8771

                     49                     50                     51
                      A                      A                      A
 Frequencies --   2624.5222              2678.9271              2679.0588
 Red. masses --      1.0371                 1.0386                 1.0386
 Frc consts  --      4.2089                 4.3915                 4.3918
 IR Inten    --     27.4115                 1.7273                 3.9342

 - Thermochemistry -
 -------------------
 Temperature   298.150 Kelvin.  Pressure   1.00000 Atm.
 Atom     1 has atomic number 42 and mass  97.90550

 Molecular mass:   685.41760 amu.
 Principal axes and moments of inertia in atomic units:
                           1         2         3
     Eigenvalues --  6879.80986********************
           X            0.99293   0.06623   0.09853
           Y           -0.11505   0.74160   0.66090
           Z           -0.02930  -0.66756   0.74398
 This molecule is an asymmetric top.
 Rotational symmetry number  1.
 Warning -- assumption of classical behavior for rotation
           may cause significant error
 Rotational temperatures (Kelvin)      0.01259     0.00703     0.00584
 Rotational constants (GHZ):           0.26232     0.14655     0.12164
 Zero-point vibrational energy     181105.6 (Joules/Mol)
                                   43.28529 (Kcal/Mol)
 Warning -- explicit consideration of  40 degrees of freedom as
           vibrations may cause significant error
 Vibrational temperatures:     60.13    82.21    91.91   116.52   138.77
          (Kelvin)            143.59   160.70   175.73   183.74   197.59
                              215.33   222.62   225.78   240.14   261.98
                              285.68   296.45   307.22   317.51   340.17
                              351.42   372.89   393.72   423.41   454.43
                              474.08   480.91   490.93   491.44   503.88
                              510.64   520.01   604.98   623.87   638.99
                              654.57   730.24   810.64   842.20   888.95
                              904.27   970.40   989.23  1058.52  1759.91
                             3604.57  3703.53  3762.60  3776.10  3854.38
                             3854.57

 Zero-point correction=                           0.068979 (Hartree/Particle)
 Thermal correction to Energy=                    0.092233
 Thermal correction to Enthalpy=                  0.093177
 Thermal correction to Gibbs Free Energy=         0.015477
 Sum of electronic and zero-point Energies=          -3857.751581
 Sum of electronic and thermal Energies=             -3857.728327
 Sum of electronic and thermal Enthalpies=           -3857.727383
 Sum of electronic and thermal Free Energies=        -3857.805083

                     E (Thermal)             CV                S
                      KCal/Mol        Cal/Mol-Kelvin    Cal/Mol-Kelvin
 Total                   57.877             77.275            163.533
 Electronic               0.000              0.000              0.000
 Translational            0.889              2.981             45.456
 Rotational               0.889              2.981             35.484
 Vibrational             56.100             71.313             82.593
 Vibration     1          0.594              1.980              5.172
 Vibration     2          0.596              1.975              4.554
 Vibration     3          0.597              1.972              4.334
 Vibration     4          0.600              1.962              3.867
 Vibration     5          0.603              1.952              3.525
 Vibration     6          0.604              1.949              3.458
 Vibration     7          0.607              1.940              3.239
 Vibration     8          0.610              1.931              3.066
 Vibration     9          0.611              1.925              2.980
 Vibration    10          0.614              1.916              2.841
 Vibration    11          0.618              1.903              2.677
 Vibration    12          0.620              1.897              2.613
 Vibration    13          0.621              1.895              2.586
 Vibration    14          0.624              1.883              2.470
 Vibration    15          0.630              1.864              2.307
 Vibration    16          0.637              1.842              2.146
 Vibration    17          0.641              1.831              2.078
 Vibration    18          0.644              1.820              2.013
 Vibration    19          0.647              1.810              1.953
 Vibration    20          0.655              1.785              1.830
 Vibration    21          0.660              1.772              1.772
 Vibration    22          0.668              1.747              1.667
 Vibration    23          0.676              1.722              1.573
 Vibration    24          0.689              1.684              1.449
 Vibration    25          0.703              1.643              1.332
 Vibration    26          0.712              1.617              1.263
 Vibration    27          0.716              1.607              1.239
 Vibration    28          0.721              1.593              1.206
 Vibration    29          0.721              1.592              1.205
 Vibration    30          0.727              1.575              1.165
 Vibration    31          0.731              1.565              1.144
 Vibration    32          0.736              1.552              1.116
 Vibration    33          0.783              1.426              0.890
 Vibration    34          0.794              1.397              0.847
 Vibration    35          0.804              1.374              0.814
 Vibration    36          0.813              1.350              0.781
 Vibration    37          0.863              1.233              0.640
 Vibration    38          0.919              1.110              0.517
 Vibration    39          0.942              1.063              0.476
 Vibration    40          0.978              0.994              0.420

                           ! Non-Optimized Parameters !
 Normal termination of Gaussian 16 at Mon Dec  5 17:18:49 2022.
