 Gaussian 16, Revision C.01,
 Gaussian 16:  ES64L-G16RevC.01  3-Jul-2019

 -----------------------------------------------------------
 # opt=(calcfc,ts,noeigen) freq b3lyp/gen nosymm pseudo=read
 -----------------------------------------------------------

 -------------------
 Title Card Required
 -------------------
 Symbolic Z-matrix:
 Charge =  0 Multiplicity = 1

 SCF Done:  E(RB3LYP) =  -3857.75435661     A.U. after   26 cycles
 SCF Done:  E(RB3LYP) =  -3857.76296021     A.U. after   20 cycles
 SCF Done:  E(RB3LYP) =  -3857.76515586     A.U. after   20 cycles
 SCF Done:  E(RB3LYP) =  -3857.76848027     A.U. after   19 cycles
 SCF Done:  E(RB3LYP) =  -3857.77410419     A.U. after   19 cycles
 SCF Done:  E(RB3LYP) =  -3857.77991900     A.U. after   19 cycles
 SCF Done:  E(RB3LYP) =  -3857.77892642     A.U. after   19 cycles
 SCF Done:  E(RB3LYP) =  -3857.78576643     A.U. after   19 cycles
 SCF Done:  E(RB3LYP) =  -3857.78912548     A.U. after   19 cycles
 SCF Done:  E(RB3LYP) =  -3857.79338755     A.U. after   20 cycles
 SCF Done:  E(RB3LYP) =  -3857.80010639     A.U. after   16 cycles
 SCF Done:  E(RB3LYP) =  -3857.80010892     A.U. after   15 cycles
 SCF Done:  E(RB3LYP) =  -3857.80010988     A.U. after   14 cycles
 SCF Done:  E(RB3LYP) =  -3857.80011022     A.U. after   13 cycles
 SCF Done:  E(RB3LYP) =  -3857.80011056     A.U. after   13 cycles
 SCF Done:  E(RB3LYP) =  -3857.80011088     A.U. after   14 cycles
 SCF Done:  E(RB3LYP) =  -3857.80011114     A.U. after   14 cycles
 SCF Done:  E(RB3LYP) =  -3857.80011125     A.U. after   13 cycles
 SCF Done:  E(RB3LYP) =  -3857.80011134     A.U. after   13 cycles
 Optimization completed.
    -- Stationary point found.
 Normal termination of Gaussian 16 at Thu Oct 27 17:34:57 2022.

 ------------------------------------------------------------------
 #N Geom=AllCheck Guess=TCheck SCRF=Check GenChk RB3LYP/ChkBas Freq
 ------------------------------------------------------------------

 Structure from the checkpoint file:  "/localscratch/chegho/Gau-103060.chk"
 -------------------
 Title Card Required
 -------------------
 Charge =  0 Multiplicity = 1

                          Input orientation:
 ---------------------------------------------------------------------
 Center     Atomic      Atomic             Coordinates (Angstroms)
 Number     Number       Type             X           Y           Z
 ---------------------------------------------------------------------
      1         42           0        0.214268    1.320744   11.421268
      2         16           0        1.330720    3.417494   11.634379
      3         16           0       -1.424785    1.790746   13.064041
      4         16           0       -1.022152    1.249553    9.404989
      5         16           0        1.921012   -0.319402   10.757120
      6          1           0        2.968744   -0.602492   11.962563
      7         42           0       -2.174052    2.568858   11.013174
      8         16           0       -4.283736    1.842143   10.302549
      9          1           0       -4.090353    0.714371    9.588747
     10         16           0       -1.626653    4.707322   10.601827
     11         42           0        0.149733    3.368031    9.604076
     12         16           0        0.968744    5.368936    8.528000
     13          1           0        0.328323    6.359151    9.182421
     14         16           0        1.806041    2.366364    7.962469
     15          1           0        1.287456    1.167448    7.617438
     16         42           0        2.527012    1.867452   10.271799
     17         16           0        4.307110    1.521937   11.891615
     18          1           0        3.753305    0.050771   12.285283
     19          1           0        3.908365    2.123515   13.032391
 ---------------------------------------------------------------------

 SCF Done:  E(RB3LYP) =  -3857.80011134     A.U. after    1 cycles

 Alpha  occ. eigenvalues --  -88.92276 -88.90932 -88.90480 -88.89990 -88.89784
 Alpha  occ. eigenvalues --  -88.87026 -88.86848 -88.86844 -88.84959  -8.00012
 Alpha  occ. eigenvalues --   -7.98480  -7.98124  -7.97591  -7.97438  -7.94831
 Alpha  occ. eigenvalues --   -7.94693  -7.94637  -7.92612  -5.96218  -5.96039
 Alpha  occ. eigenvalues --   -5.95635  -5.94747  -5.94321  -5.94264  -5.94113
 Alpha  occ. eigenvalues --   -5.94100  -5.94022  -5.93846  -5.93454  -5.93434
 Alpha  occ. eigenvalues --   -5.93398  -5.93368  -5.93350  -5.90963  -5.90855
 Alpha  occ. eigenvalues --   -5.90789  -5.90689  -5.90656  -5.90608  -5.90583
 Alpha  occ. eigenvalues --   -5.90493  -5.90374  -5.88900  -5.88511  -5.88305
 Alpha  occ. eigenvalues --   -2.53563  -2.53030  -2.52781  -2.52301  -1.57266
 Alpha  occ. eigenvalues --   -1.56804  -1.56530  -1.55890  -1.55549  -1.55190
 Alpha  occ. eigenvalues --   -1.54898  -1.54593  -1.54367  -1.54257  -1.53801
 Alpha  occ. eigenvalues --   -1.53586  -0.78805  -0.75593  -0.74130  -0.73692
 Alpha  occ. eigenvalues --   -0.73091  -0.72121  -0.70344  -0.69670  -0.69081
 Alpha  occ. eigenvalues --   -0.51568  -0.46084  -0.45612  -0.43245  -0.40919
 Alpha  occ. eigenvalues --   -0.40195  -0.40031  -0.39483  -0.39200  -0.39013
 Alpha  occ. eigenvalues --   -0.38228  -0.37036  -0.36221  -0.35550  -0.35352
 Alpha  occ. eigenvalues --   -0.34117  -0.33948  -0.33426  -0.32918  -0.32170
 Alpha  occ. eigenvalues --   -0.31745  -0.31563  -0.30587  -0.29722  -0.28884
 Alpha  occ. eigenvalues --   -0.28551  -0.27704  -0.27517  -0.25544  -0.25490
 Alpha  occ. eigenvalues --   -0.24417  -0.23001  -0.21459
 Alpha virt. eigenvalues --   -0.14415  -0.13365  -0.13003  -0.12055  -0.11753
 Alpha virt. eigenvalues --   -0.10752  -0.10236  -0.09351  -0.08760  -0.08650
 Alpha virt. eigenvalues --   -0.08536  -0.07720  -0.06092  -0.05444  -0.03163

 Mulliken charges:
               1
     1  Mo   0.126963
     2  S    0.205895
     3  S   -0.111986
     4  S    0.069864
     5  S   -0.028699
     6  H   -0.006845
     7  Mo   0.063641
     8  S   -0.147667
     9  H    0.093550
    10  S   -0.057549
    11  Mo  -0.354925
    12  S   -0.083365
    13  H    0.079135
    14  S   -0.010777
    15  H    0.119372
    16  Mo  -0.095694
    17  S   -0.022420
    18  H    0.026674
    19  H    0.134832
 Sum of Mulliken charges =  -0.00000

 Dipole moment (field-independent basis, Debye):
    X=              3.7241    Y=             -3.2170    Z=              1.1752  Tot=              5.0596
 Quadrupole moment (field-independent basis, Debye-Ang):
   XX=           -209.4481   YY=           -229.9582   ZZ=           -189.4251
   XY=              6.0187   XZ=             48.6062   YZ=            -23.5123

  Exact polarizability:     456.827     -22.636     319.713       3.526     -45.287     286.650
 Approx polarizability:    1268.491     -50.094     964.117     -82.069    -182.819     827.839

 ******    1 imaginary frequencies (negative Signs) ******

                      1                      2                      3
                      A                      A                      A
 Frequencies --  -1446.9964                44.5841                60.9017
 Red. masses --      1.0460                13.7248                12.7087
 Frc consts  --      1.2904                 0.0161                 0.0278
 IR Inten    --   3203.4137                 0.1338                 0.4346

                      4                      5                      6
                      A                      A                      A
 Frequencies --     65.2019                84.0498                95.7527
 Red. masses --     11.9768                11.6415                 9.1866
 Frc consts  --      0.0300                 0.0485                 0.0496
 IR Inten    --      0.9799                 0.2465                 0.4985

                      7                      8                      9
                      A                      A                      A
 Frequencies --    100.1317               110.5925               128.7307
 Red. masses --     15.5251                10.5605                29.1280
 Frc consts  --      0.0917                 0.0761                 0.2844
 IR Inten    --      0.5411                 1.1019                 0.3779

                     10                     11                     12
                      A                      A                      A
 Frequencies --    137.2510               146.3351               159.0525
 Red. masses --     24.4502                13.0483                16.6104
 Frc consts  --      0.2714                 0.1646                 0.2476
 IR Inten    --      0.3752                 0.8838                 0.4258

                     13                     14                     15
                      A                      A                      A
 Frequencies --    163.8871               182.5748               201.6224
 Red. masses --     28.4985                30.3124                13.2489
 Frc consts  --      0.4510                 0.5953                 0.3173
 IR Inten    --      0.2207                 0.3878                 1.5559

                     16                     17                     18
                      A                      A                      A
 Frequencies --    207.9398               222.1256               231.7165
 Red. masses --     26.0826                 2.4531                 6.7696
 Frc consts  --      0.6645                 0.0713                 0.2142
 IR Inten    --      0.9958                 5.0759                 0.2669

                     19                     20                     21
                      A                      A                      A
 Frequencies --    249.1740               260.1912               272.4707
 Red. masses --      7.7616                 4.4380                19.5032
 Frc consts  --      0.2839                 0.1770                 0.8531
 IR Inten    --      0.6512                 9.3413                 8.8204

                     22                     23                     24
                      A                      A                      A
 Frequencies --    286.5146               291.7255               309.6878
 Red. masses --     10.6565                16.4810                22.3862
 Frc consts  --      0.5154                 0.8264                 1.2650
 IR Inten    --      6.5124                 4.8983                15.3551

                     25                     26                     27
                      A                      A                      A
 Frequencies --    322.3003               337.4627               339.4882
 Red. masses --     21.2191                16.9870                20.2106
 Frc consts  --      1.2987                 1.1398                 1.3724
 IR Inten    --      5.5835                15.4318                 4.7829

                     28                     29                     30
                      A                      A                      A
 Frequencies --    348.9748               358.2920               361.3937
 Red. masses --     12.7451                34.2487                 1.9670
 Frc consts  --      0.9145                 2.5904                 0.1514
 IR Inten    --     28.8761                54.1107                 4.0565

                     31                     32                     33
                      A                      A                      A
 Frequencies --    366.9912               386.1721               403.2323
 Red. masses --      3.1777                 1.2773                17.7681
 Frc consts  --      0.2522                 0.1122                 1.7022
 IR Inten    --     11.6894                 8.0767                29.3414

                     34                     35                     36
                      A                      A                      A
 Frequencies --    423.9097               436.6604               446.7272
 Red. masses --     22.2913                23.6584                23.3741
 Frc consts  --      2.3601                 2.6578                 2.7483
 IR Inten    --     13.4697                 2.6588                14.3351

                     37                     38                     39
                      A                      A                      A
 Frequencies --    458.7555               539.2051               583.3781
 Red. masses --     20.7836                 1.1003                 1.0475
 Frc consts  --      2.5771                 0.1885                 0.2100
 IR Inten    --     31.9770                 8.5829                 3.2545

                     40                     41                     42
                      A                      A                      A
 Frequencies --    617.1367               637.2258               691.8217
 Red. masses --      1.0707                 1.0607                 1.0461
 Frc consts  --      0.2403                 0.2538                 0.2950
 IR Inten    --     12.1555                14.2131                 9.6190

                     43                     44                     45
                      A                      A                      A
 Frequencies --    729.1796              1041.5471              1171.7037
 Red. masses --      1.0525                 1.0271                 1.0153
 Frc consts  --      0.3297                 0.6565                 0.8213
 IR Inten    --      6.7945                 5.1926                 4.1072

                     46                     47                     48
                      A                      A                      A
 Frequencies --   1257.3848              1299.6379              2648.9778
 Red. masses --      1.0236                 1.0378                 1.0386
 Frc consts  --      0.9534                 1.0328                 4.2938
 IR Inten    --     23.3911                60.6652                 2.1367

                     49                     50                     51
                      A                      A                      A
 Frequencies --   2669.1829              2679.2120              2679.2840
 Red. masses --      1.0388                 1.0385                 1.0386
 Frc consts  --      4.3607                 4.3922                 4.3926
 IR Inten    --      2.3459                 0.5896                 3.1338

 - Thermochemistry -
 -------------------
 Temperature   298.150 Kelvin.  Pressure   1.00000 Atm.
 Atom     1 has atomic number 42 and mass  97.90550

 Molecular mass:   685.41760 amu.
 Principal axes and moments of inertia in atomic units:
                           1         2         3
     Eigenvalues --  6857.37098********************
           X            0.98538   0.09558   0.14106
           Y           -0.16407   0.75568   0.63405
           Z           -0.04599  -0.64793   0.76031
 This molecule is an asymmetric top.
 Rotational symmetry number  1.
 Warning -- assumption of classical behavior for rotation
           may cause significant error
 Rotational temperatures (Kelvin)      0.01263     0.00711     0.00575
 Rotational constants (GHZ):           0.26318     0.14820     0.11984
    1 imaginary frequencies ignored.
 Zero-point vibrational energy     168957.3 (Joules/Mol)
                                   40.38176 (Kcal/Mol)
 Warning -- explicit consideration of  39 degrees of freedom as
           vibrations may cause significant error
 Vibrational temperatures:     64.15    87.62    93.81   120.93   137.77
          (Kelvin)            144.07   159.12   185.21   197.47   210.54
                              228.84   235.80   262.68   290.09   299.18
                              319.59   333.39   358.51   374.36   392.02
                              412.23   419.73   445.57   463.72   485.53
                              488.45   502.10   515.50   519.96   528.02
                              555.62   580.16   609.91   628.26   642.74
                              660.05   775.80   839.35   887.92   916.83
                              995.38  1049.13  1498.55  1685.82  1809.10
                             1869.89  3811.29  3840.36  3854.79  3854.89

 Zero-point correction=                           0.064352 (Hartree/Particle)
 Thermal correction to Energy=                    0.086486
 Thermal correction to Enthalpy=                  0.087431
 Thermal correction to Gibbs Free Energy=         0.012329
 Sum of electronic and zero-point Energies=          -3857.735759
 Sum of electronic and thermal Energies=             -3857.713625
 Sum of electronic and thermal Enthalpies=           -3857.712681
 Sum of electronic and thermal Free Energies=        -3857.787782

                     E (Thermal)             CV                S
                      KCal/Mol        Cal/Mol-Kelvin    Cal/Mol-Kelvin
 Total                   54.271             74.836            158.065
 Electronic               0.000              0.000              0.000
 Translational            0.889              2.981             45.456
 Rotational               0.889              2.981             35.485
 Vibrational             52.494             68.874             77.124
 Vibration     1          0.595              1.980              5.044
 Vibration     2          0.597              1.973              4.428
 Vibration     3          0.597              1.971              4.293
 Vibration     4          0.601              1.960              3.794
 Vibration     5          0.603              1.952              3.539
 Vibration     6          0.604              1.949              3.452
 Vibration     7          0.606              1.941              3.258
 Vibration     8          0.611              1.925              2.965
 Vibration     9          0.614              1.916              2.842
 Vibration    10          0.617              1.907              2.719
 Vibration    11          0.621              1.892              2.561
 Vibration    12          0.623              1.887              2.504
 Vibration    13          0.630              1.863              2.302
 Vibration    14          0.639              1.838              2.118
 Vibration    15          0.641              1.829              2.062
 Vibration    16          0.648              1.807              1.942
 Vibration    17          0.653              1.792              1.866
 Vibration    18          0.662              1.764              1.736
 Vibration    19          0.668              1.745              1.660
 Vibration    20          0.675              1.724              1.580
 Vibration    21          0.684              1.699              1.494
 Vibration    22          0.687              1.689              1.464
 Vibration    23          0.699              1.655              1.364
 Vibration    24          0.707              1.631              1.298
 Vibration    25          0.718              1.601              1.224
 Vibration    26          0.719              1.597              1.215
 Vibration    27          0.726              1.577              1.171
 Vibration    28          0.733              1.558              1.130
 Vibration    29          0.736              1.552              1.116
 Vibration    30          0.740              1.540              1.092
 Vibration    31          0.755              1.500              1.015
 Vibration    32          0.769              1.463              0.951
 Vibration    33          0.786              1.418              0.879
 Vibration    34          0.797              1.390              0.837
 Vibration    35          0.806              1.368              0.806
 Vibration    36          0.817              1.342              0.770
 Vibration    37          0.894              1.163              0.567
 Vibration    38          0.940              1.067              0.479
 Vibration    39          0.977              0.996              0.421

                           ! Non-Optimized Parameters !
 Normal termination of Gaussian 16 at Thu Oct 27 17:36:08 2022.
