 Gaussian 16, Revision C.01,
 Gaussian 16:  ES64L-G16RevC.01  3-Jul-2019

 ---------------------------------------
 # opt freq b3lyp/gen nosymm pseudo=read
 ---------------------------------------

 -------------------
 Title Card Required
 -------------------
 Symbolic Z-matrix:
 Charge =  0 Multiplicity = 1

 SCF Done:  E(RB3LYP) =  -3856.65588262     A.U. after   25 cycles
 SCF Done:  E(RB3LYP) =  -3856.66911773     A.U. after   19 cycles
 SCF Done:  E(RB3LYP) =  -3856.67880307     A.U. after   19 cycles
 SCF Done:  E(RB3LYP) =  -3856.68074576     A.U. after   18 cycles
 SCF Done:  E(RB3LYP) =  -3856.68194296     A.U. after   19 cycles
 SCF Done:  E(RB3LYP) =  -3856.68221142     A.U. after   17 cycles
 SCF Done:  E(RB3LYP) =  -3856.68235700     A.U. after   17 cycles
 SCF Done:  E(RB3LYP) =  -3856.68240136     A.U. after   16 cycles
 SCF Done:  E(RB3LYP) =  -3856.68242562     A.U. after   16 cycles
 SCF Done:  E(RB3LYP) =  -3856.68245019     A.U. after   15 cycles
 SCF Done:  E(RB3LYP) =  -3856.68246498     A.U. after   15 cycles
 SCF Done:  E(RB3LYP) =  -3856.68247860     A.U. after   15 cycles
 SCF Done:  E(RB3LYP) =  -3856.68249199     A.U. after   16 cycles
 SCF Done:  E(RB3LYP) =  -3856.68249891     A.U. after   15 cycles
 SCF Done:  E(RB3LYP) =  -3856.68249985     A.U. after   13 cycles
 SCF Done:  E(RB3LYP) =  -3856.68250013     A.U. after   12 cycles
 Optimization completed.
    -- Stationary point found.
 Normal termination of Gaussian 16 at Thu Oct 27 17:46:08 2022.

 ------------------------------------------------------------------
 #N Geom=AllCheck Guess=TCheck SCRF=Check GenChk RB3LYP/ChkBas Freq
 ------------------------------------------------------------------

 Structure from the checkpoint file:  "/localscratch/chegho/Gau-125337.chk"
 -------------------
 Title Card Required
 -------------------
 Charge =  0 Multiplicity = 1

                          Input orientation:
 ---------------------------------------------------------------------
 Center     Atomic      Atomic             Coordinates (Angstroms)
 Number     Number       Type             X           Y           Z
 ---------------------------------------------------------------------
      1         42           0       -0.006645    1.115095   11.473093
      2         16           0        1.260984    3.101300   11.850903
      3         16           0       -1.752003    1.623504   12.989993
      4         16           0       -1.039461    1.276439    9.331687
      5         16           0        1.594682   -0.498504   10.772209
      6         42           0       -2.235355    2.553441   10.930497
      7         16           0       -4.353245    2.059486   10.074969
      8          1           0       -4.267494    0.781716    9.648127
      9         16           0       -1.509489    4.656484   10.741306
     10         42           0        0.260221    3.284444    9.741630
     11         16           0        1.114277    5.278588    8.726689
     12          1           0        0.414151    6.269139    9.317430
     13         16           0        2.001241    2.309745    8.164592
     14          1           0        1.474469    1.152723    7.701011
     15         42           0        2.453236    1.585752   10.438888
     16         16           0        4.488484    2.069761   11.446942
     17          1           0        4.224001    2.840550   12.523338
 ---------------------------------------------------------------------

 SCF Done:  E(RB3LYP) =  -3856.68250013     A.U. after    1 cycles

 Alpha  occ. eigenvalues --  -88.91448 -88.91313 -88.90763 -88.88841 -88.88560
 Alpha  occ. eigenvalues --  -88.88209 -88.88090 -88.87910 -88.86271  -7.99087
 Alpha  occ. eigenvalues --   -7.98932  -7.98399  -7.96663  -7.96415  -7.96012
 Alpha  occ. eigenvalues --   -7.95944  -7.95706  -7.93925  -5.95325  -5.94962
 Alpha  occ. eigenvalues --   -5.94928  -5.94886  -5.94852  -5.94848  -5.94401
 Alpha  occ. eigenvalues --   -5.94365  -5.94300  -5.92670  -5.92666  -5.92612
 Alpha  occ. eigenvalues --   -5.92549  -5.92293  -5.92206  -5.92121  -5.92044
 Alpha  occ. eigenvalues --   -5.91970  -5.91860  -5.91835  -5.91721  -5.91675
 Alpha  occ. eigenvalues --   -5.91629  -5.91564  -5.90198  -5.89795  -5.89657
 Alpha  occ. eigenvalues --   -2.54918  -2.54476  -2.53967  -2.53699  -1.58401
 Alpha  occ. eigenvalues --   -1.57986  -1.57722  -1.57248  -1.57188  -1.56787
 Alpha  occ. eigenvalues --   -1.56152  -1.55986  -1.55711  -1.55419  -1.55076
 Alpha  occ. eigenvalues --   -1.54970  -0.77071  -0.74889  -0.74217  -0.73656
 Alpha  occ. eigenvalues --   -0.73335  -0.71807  -0.71546  -0.70595  -0.70081
 Alpha  occ. eigenvalues --   -0.47234  -0.44803  -0.44244  -0.42097  -0.41220
 Alpha  occ. eigenvalues --   -0.40684  -0.40329  -0.39765  -0.39469  -0.38917
 Alpha  occ. eigenvalues --   -0.37541  -0.36924  -0.35738  -0.35586  -0.34975
 Alpha  occ. eigenvalues --   -0.34564  -0.34023  -0.33770  -0.33242  -0.32647
 Alpha  occ. eigenvalues --   -0.32225  -0.31086  -0.30568  -0.30159  -0.29398
 Alpha  occ. eigenvalues --   -0.29355  -0.28201  -0.28003  -0.26448  -0.24918
 Alpha  occ. eigenvalues --   -0.24061  -0.23053
 Alpha virt. eigenvalues --   -0.14951  -0.14657  -0.13924  -0.13177  -0.12467
 Alpha virt. eigenvalues --   -0.12083  -0.10825  -0.10570  -0.10143  -0.09578
 Alpha virt. eigenvalues --   -0.09062  -0.08618  -0.06452  -0.06343  -0.04007

 Mulliken charges:
               1
     1  Mo   0.084150
     2  S    0.198830
     3  S   -0.096563
     4  S    0.102149
     5  S   -0.092849
     6  Mo   0.075966
     7  S   -0.136164
     8  H    0.099448
     9  S   -0.048294
    10  Mo  -0.315412
    11  S   -0.061167
    12  H    0.080480
    13  S    0.025734
    14  H    0.126103
    15  Mo  -0.005800
    16  S   -0.136621
    17  H    0.100010
 Sum of Mulliken charges =  -0.00000

 Dipole moment (field-independent basis, Debye):
    X=              0.3476    Y=             -2.0495    Z=             -0.0818  Tot=              2.0803
 Quadrupole moment (field-independent basis, Debye-Ang):
   XX=           -216.4935   YY=           -221.3802   ZZ=           -212.4613
   XY=              2.5821   XZ=              8.4542   YZ=            -13.5338

  Exact polarizability:     467.415      -6.431     311.520      -6.500     -30.624     265.920
 Approx polarizability:    1283.914     -47.276     961.418     -78.602    -113.315     744.504

                      1                      2                      3
                      A                      A                      A
 Frequencies --     41.3418                50.3741                57.5133
 Red. masses --     12.4380                 6.5513                15.1023
 Frc consts  --      0.0125                 0.0098                 0.0294
 IR Inten    --      0.1610                 1.9034                 0.3896

                      4                      5                      6
                      A                      A                      A
 Frequencies --     75.5031                90.0785               104.7537
 Red. masses --     13.3149                12.5945                26.3560
 Frc consts  --      0.0447                 0.0602                 0.1704
 IR Inten    --      0.5308                 0.4924                 0.7365

                      7                      8                      9
                      A                      A                      A
 Frequencies --    116.7572               122.8316               136.6020
 Red. masses --     28.5357                14.4629                19.6318
 Frc consts  --      0.2292                 0.1286                 0.2158
 IR Inten    --      0.1701                 0.1329                 0.5788

                     10                     11                     12
                      A                      A                      A
 Frequencies --    144.7028               148.4802               156.8454
 Red. masses --     18.0613                18.8135                20.6100
 Frc consts  --      0.2228                 0.2444                 0.2987
 IR Inten    --      1.5272                 0.5137                 0.6865

                     13                     14                     15
                      A                      A                      A
 Frequencies --    165.0896               184.6482               205.8147
 Red. masses --     16.1681                32.6816                18.0259
 Frc consts  --      0.2596                 0.6565                 0.4499
 IR Inten    --      0.8347                 0.7368                 0.7544

                     16                     17                     18
                      A                      A                      A
 Frequencies --    210.2184               236.1557               239.1469
 Red. masses --     28.4968                 6.3368                 2.9445
 Frc consts  --      0.7420                 0.2082                 0.0992
 IR Inten    --      0.3511                 4.4677                 2.2711

                     19                     20                     21
                      A                      A                      A
 Frequencies --    263.6572               268.3784               273.7802
 Red. masses --      1.8832                 2.7685                 3.0769
 Frc consts  --      0.0771                 0.1175                 0.1359
 IR Inten    --      1.0978                10.1653                 5.5045

                     22                     23                     24
                      A                      A                      A
 Frequencies --    290.1960               298.3330               327.9377
 Red. masses --     27.3811                21.4204                27.4747
 Frc consts  --      1.3586                 1.1233                 1.7409
 IR Inten    --      5.6772                 6.4177                 2.9111

                     25                     26                     27
                      A                      A                      A
 Frequencies --    338.0921               342.4417               356.9138
 Red. masses --     22.7165                36.8367                22.4230
 Frc consts  --      1.5299                 2.5451                 1.6829
 IR Inten    --     14.3388                10.8395                23.3122

                     28                     29                     30
                      A                      A                      A
 Frequencies --    362.2716               366.5209               374.4208
 Red. masses --     32.8195                14.2816                10.4220
 Frc consts  --      2.5378                 1.1304                 0.8608
 IR Inten    --     63.8934                 3.4686                68.2325

                     31                     32                     33
                      A                      A                      A
 Frequencies --    387.2919               420.4915               437.5840
 Red. masses --      1.3370                14.6409                24.1955
 Frc consts  --      0.1182                 1.5252                 2.7296
 IR Inten    --      4.4769                14.5376                 8.7424

                     34                     35                     36
                      A                      A                      A
 Frequencies --    444.2716               455.2920               463.0424
 Red. masses --     21.8089                27.2643                16.1099
 Frc consts  --      2.5362                 3.3298                 2.0351
 IR Inten    --      5.5056                21.8243                28.9677

                     37                     38                     39
                      A                      A                      A
 Frequencies --    588.3214               613.1319               637.4402
 Red. masses --      1.0935                 1.0738                 1.0636
 Frc consts  --      0.2230                 0.2378                 0.2546
 IR Inten    --     10.1845                 1.7493                20.7124

                     40                     41                     42
                      A                      A                      A
 Frequencies --    641.6648               705.5224              2633.3603
 Red. masses --      1.0559                 1.0447                 1.0384
 Frc consts  --      0.2562                 0.3064                 4.2426
 IR Inten    --      6.2937                11.7704                 3.1563

                     43                     44                     45
                      A                      A                      A
 Frequencies --   2664.9819              2673.8140              2674.0058
 Red. masses --      1.0386                 1.0386                 1.0384
 Frc consts  --      4.3461                 4.3747                 4.3746
 IR Inten    --      0.6918                 2.4469                 1.5191

 - Thermochemistry -
 -------------------
 Temperature   298.150 Kelvin.  Pressure   1.00000 Atm.
 Atom     1 has atomic number 42 and mass  97.90550

 Molecular mass:   683.40195 amu.
 Principal axes and moments of inertia in atomic units:
                           1         2         3
     Eigenvalues --  6583.78395********************
           X            0.99086   0.05576   0.12287
           Y           -0.11479   0.82694   0.55045
           Z           -0.07091  -0.55952   0.82578
 This molecule is an asymmetric top.
 Rotational symmetry number  1.
 Warning -- assumption of classical behavior for rotation
           may cause significant error
 Rotational temperatures (Kelvin)      0.01316     0.00703     0.00577
 Rotational constants (GHZ):           0.27412     0.14653     0.12028
 Zero-point vibrational energy     136314.6 (Joules/Mol)
                                   32.57996 (Kcal/Mol)
 Warning -- explicit consideration of  38 degrees of freedom as
           vibrations may cause significant error
 Vibrational temperatures:     59.48    72.48    82.75   108.63   129.60
          (Kelvin)            150.72   167.99   176.73   196.54   208.19
                              213.63   225.67   237.53   265.67   296.12
                              302.46   339.78   344.08   379.34   386.14
                              393.91   417.53   429.23   471.83   486.44
                              492.70   513.52   521.23   527.34   538.71
                              557.23   604.99   629.59   639.21   655.06
                              666.21   846.46   882.16   917.13   923.21
                             1015.09  3788.82  3834.31  3847.02  3847.30

 Zero-point correction=                           0.051919 (Hartree/Particle)
 Thermal correction to Energy=                    0.073944
 Thermal correction to Enthalpy=                  0.074889
 Thermal correction to Gibbs Free Energy=        -0.000631
 Sum of electronic and zero-point Energies=          -3856.630581
 Sum of electronic and thermal Energies=             -3856.608556
 Sum of electronic and thermal Enthalpies=           -3856.607612
 Sum of electronic and thermal Free Energies=        -3856.683131

                     E (Thermal)             CV                S
                      KCal/Mol        Cal/Mol-Kelvin    Cal/Mol-Kelvin
 Total                   46.401             72.915            158.944
 Electronic               0.000              0.000              0.000
 Translational            0.889              2.981             45.447
 Rotational               0.889              2.981             35.452
 Vibrational             44.623             66.954             78.045
 Vibration     1          0.594              1.981              5.194
 Vibration     2          0.595              1.977              4.803
 Vibration     3          0.596              1.974              4.541
 Vibration     4          0.599              1.965              4.005
 Vibration     5          0.602              1.956              3.658
 Vibration     6          0.605              1.945              3.364
 Vibration     7          0.608              1.935              3.153
 Vibration     8          0.610              1.930              3.055
 Vibration     9          0.614              1.917              2.851
 Vibration    10          0.616              1.908              2.741
 Vibration    11          0.618              1.904              2.692
 Vibration    12          0.621              1.895              2.587
 Vibration    13          0.623              1.885              2.491
 Vibration    14          0.631              1.861              2.281
 Vibration    15          0.640              1.832              2.080
 Vibration    16          0.642              1.825              2.042
 Vibration    17          0.655              1.785              1.832
 Vibration    18          0.657              1.781              1.809
 Vibration    19          0.670              1.740              1.637
 Vibration    20          0.673              1.731              1.607
 Vibration    21          0.676              1.722              1.572
 Vibration    22          0.686              1.692              1.473
 Vibration    23          0.691              1.677              1.426
 Vibration    24          0.711              1.620              1.270
 Vibration    25          0.718              1.599              1.221
 Vibration    26          0.722              1.591              1.201
 Vibration    27          0.732              1.561              1.136
 Vibration    28          0.736              1.550              1.112
 Vibration    29          0.739              1.541              1.094
 Vibration    30          0.746              1.525              1.062
 Vibration    31          0.756              1.497              1.011
 Vibration    32          0.783              1.426              0.890
 Vibration    33          0.798              1.388              0.834
 Vibration    34          0.804              1.374              0.813
 Vibration    35          0.814              1.349              0.780
 Vibration    36          0.821              1.332              0.757
 Vibration    37          0.946              1.057              0.470
 Vibration    38          0.972              1.004              0.428

                           ! Non-Optimized Parameters !
 Normal termination of Gaussian 16 at Thu Oct 27 17:47:12 2022.
