 Gaussian 16, Revision C.01,
 Gaussian 16:  ES64L-G16RevC.01  3-Jul-2019

 ---------------------------------------
 # opt freq b3lyp/gen nosymm pseudo=read
 ---------------------------------------

 -------------------
 Title Card Required
 -------------------
 Symbolic Z-matrix:
 Charge =  0 Multiplicity = 1

 SCF Done:  E(RB3LYP) =  -4256.07358098     A.U. after   24 cycles
 SCF Done:  E(RB3LYP) =  -4256.08618499     A.U. after   18 cycles
 SCF Done:  E(RB3LYP) =  -4256.09146727     A.U. after   18 cycles
 SCF Done:  E(RB3LYP) =  -4256.09228094     A.U. after   16 cycles
 SCF Done:  E(RB3LYP) =  -4256.09245939     A.U. after   16 cycles
 SCF Done:  E(RB3LYP) =  -4256.09253803     A.U. after   15 cycles
 SCF Done:  E(RB3LYP) =  -4256.09257945     A.U. after   15 cycles
 SCF Done:  E(RB3LYP) =  -4256.09260183     A.U. after   16 cycles
 SCF Done:  E(RB3LYP) =  -4256.09262108     A.U. after   15 cycles
 SCF Done:  E(RB3LYP) =  -4256.09265527     A.U. after   16 cycles
 SCF Done:  E(RB3LYP) =  -4256.09375330     A.U. after   16 cycles
 SCF Done:  E(RB3LYP) =  -4256.09377529     A.U. after   15 cycles
 SCF Done:  E(RB3LYP) =  -4256.09378555     A.U. after   15 cycles
 SCF Done:  E(RB3LYP) =  -4256.09378954     A.U. after   15 cycles
 SCF Done:  E(RB3LYP) =  -4256.09379020     A.U. after   12 cycles
 SCF Done:  E(RB3LYP) =  -4256.09379119     A.U. after   14 cycles
 SCF Done:  E(RB3LYP) =  -4256.09379135     A.U. after   12 cycles
 SCF Done:  E(RB3LYP) =  -4256.09379140     A.U. after   12 cycles
 SCF Done:  E(RB3LYP) =  -4256.09379144     A.U. after   11 cycles
 Optimization completed.
    -- Stationary point found.
 Normal termination of Gaussian 16 at Thu Oct 27 18:00:26 2022.

 ------------------------------------------------------------------
 #N Geom=AllCheck Guess=TCheck SCRF=Check GenChk RB3LYP/ChkBas Freq
 ------------------------------------------------------------------

 Structure from the checkpoint file:  "/localscratch/chegho/Gau-135159.chk"
 -------------------
 Title Card Required
 -------------------
 Charge =  0 Multiplicity = 1

                          Input orientation:
 ---------------------------------------------------------------------
 Center     Atomic      Atomic             Coordinates (Angstroms)
 Number     Number       Type             X           Y           Z
 ---------------------------------------------------------------------
      1         42           0       -0.022256    1.098085   11.348192
      2         16           0        1.324301    3.002623   11.725650
      3         16           0       -1.686849    1.567755   12.971440
      4         16           0       -1.156233    1.364158    9.274791
      5         16           0        1.426287   -0.540107   10.482067
      6         42           0       -2.273419    2.567783   10.975623
      7         16           0       -4.415731    2.096478   10.154830
      8          1           0       -4.322872    0.889370    9.559089
      9         16           0       -1.528589    4.679533   10.851156
     10         42           0        0.175195    3.345729    9.739304
     11         16           0        1.112742    5.403982    8.906391
     12          1           0        0.500325    6.349548    9.648174
     13         16           0        1.766835    2.496208    7.988408
     14          1           0        1.185229    1.393204    7.464447
     15         42           0        2.432483    1.511414   10.161205
     16         16           0        4.431753    1.947482   11.334001
     17          1           0        4.090548    2.781583   12.338349
     18         16           0        4.246909    0.177773    8.692440
     19          1           0        4.827625   -0.589225    9.638836
     20          1           0        3.503035   -0.843361    8.219236
 ---------------------------------------------------------------------

 SCF Done:  E(RB3LYP) =  -4256.09379144     A.U. after    3 cycles

 Alpha  occ. eigenvalues --  -88.94378 -88.90777 -88.90253 -88.89826 -88.87974
 Alpha  occ. eigenvalues --  -88.87657 -88.87323 -88.87153 -88.86982 -88.85209
 Alpha  occ. eigenvalues --   -8.02018  -7.98359  -7.97876  -7.97466  -7.95740
 Alpha  occ. eigenvalues --   -7.95414  -7.95129  -7.95003  -7.94775  -7.92860
 Alpha  occ. eigenvalues --   -5.98332  -5.98047  -5.97549  -5.94616  -5.94244
 Alpha  occ. eigenvalues --   -5.94109  -5.93884  -5.93821  -5.93790  -5.93472
 Alpha  occ. eigenvalues --   -5.93425  -5.93370  -5.91766  -5.91693  -5.91689
 Alpha  occ. eigenvalues --   -5.91613  -5.91280  -5.91271  -5.91161  -5.91133
 Alpha  occ. eigenvalues --   -5.91079  -5.90985  -5.90893  -5.90793  -5.90739
 Alpha  occ. eigenvalues --   -5.90686  -5.90638  -5.89144  -5.88744  -5.88572
 Alpha  occ. eigenvalues --   -2.53925  -2.53304  -2.53029  -2.52852  -1.57271
 Alpha  occ. eigenvalues --   -1.56969  -1.56707  -1.56229  -1.56144  -1.55758
 Alpha  occ. eigenvalues --   -1.55101  -1.55014  -1.54762  -1.54606  -1.54072
 Alpha  occ. eigenvalues --   -1.53927  -0.81534  -0.76345  -0.74008  -0.73342
 Alpha  occ. eigenvalues --   -0.72511  -0.72386  -0.70923  -0.70605  -0.69677
 Alpha  occ. eigenvalues --   -0.69185  -0.51182  -0.46581  -0.45342  -0.43439
 Alpha  occ. eigenvalues --   -0.42737  -0.40985  -0.40199  -0.39960  -0.39513
 Alpha  occ. eigenvalues --   -0.38819  -0.38546  -0.38106  -0.36724  -0.35974
 Alpha  occ. eigenvalues --   -0.35467  -0.34805  -0.34316  -0.33861  -0.33549
 Alpha  occ. eigenvalues --   -0.33169  -0.32583  -0.32010  -0.31734  -0.31150
 Alpha  occ. eigenvalues --   -0.29944  -0.29445  -0.29084  -0.28423  -0.28255
 Alpha  occ. eigenvalues --   -0.27363  -0.26959  -0.25510  -0.23843  -0.23177
 Alpha  occ. eigenvalues --   -0.22132
 Alpha virt. eigenvalues --   -0.13743  -0.13446  -0.12544  -0.12104  -0.11466
 Alpha virt. eigenvalues --   -0.10985  -0.10083  -0.09631  -0.08814  -0.08592
 Alpha virt. eigenvalues --   -0.08019  -0.06776  -0.05842  -0.05047  -0.03868

 Mulliken charges:
               1
     1  Mo   0.097196
     2  S    0.168964
     3  S   -0.111143
     4  S    0.090739
     5  S   -0.104211
     6  Mo   0.083203
     7  S   -0.146791
     8  H    0.096018
     9  S   -0.055561
    10  Mo  -0.315444
    11  S   -0.071369
    12  H    0.079163
    13  S    0.032189
    14  H    0.114172
    15  Mo  -0.261937
    16  S   -0.118728
    17  H    0.093987
    18  S    0.058509
    19  H    0.141685
    20  H    0.129359
 Sum of Mulliken charges =  -0.00000

 Dipole moment (field-independent basis, Debye):
    X=              2.7896    Y=             -4.7089    Z=             -1.6384  Tot=              5.7132
 Quadrupole moment (field-independent basis, Debye-Ang):
   XX=           -223.3738   YY=           -241.5661   ZZ=           -258.5160
   XY=             -4.9333   XZ=             29.2483   YZ=            -38.8215

  Exact polarizability:     497.058     -30.798     340.347     -30.229     -12.811     281.604
 Approx polarizability:    1252.027     -69.839    1003.144    -109.278     -69.906     772.858

                      1                      2                      3
                      A                      A                      A
 Frequencies --     42.0745                47.9073                50.6288
 Red. masses --      5.3809                 1.2039                12.0153
 Frc consts  --      0.0056                 0.0016                 0.0181
 IR Inten    --      1.1920                10.3245                 0.1492

                      4                      5                      6
                      A                      A                      A
 Frequencies --     53.6872                63.2944                82.2719
 Red. masses --      9.2972                 8.2294                 8.6380
 Frc consts  --      0.0158                 0.0194                 0.0344
 IR Inten    --      0.9252                 1.4229                 0.4225

                      7                      8                      9
                      A                      A                      A
 Frequencies --     92.8805               104.1095               118.1238
 Red. masses --     15.2625                20.1923                22.1020
 Frc consts  --      0.0776                 0.1289                 0.1817
 IR Inten    --      0.6431                 1.2185                 0.5620

                     10                     11                     12
                      A                      A                      A
 Frequencies --    124.1829               129.4111               143.8015
 Red. masses --     16.8512                18.7302                21.2651
 Frc consts  --      0.1531                 0.1848                 0.2591
 IR Inten    --      0.8107                 1.1841                 0.3190

                     13                     14                     15
                      A                      A                      A
 Frequencies --    145.7047               159.3616               163.8648
 Red. masses --     11.5002                29.8853                13.4249
 Frc consts  --      0.1438                 0.4472                 0.2124
 IR Inten    --      1.8146                 0.0763                 1.0554

                     16                     17                     18
                      A                      A                      A
 Frequencies --    172.8440               176.2500               189.3844
 Red. masses --     13.3582                24.1485                33.9098
 Frc consts  --      0.2351                 0.4420                 0.7166
 IR Inten    --      0.3827                 0.5879                 0.2150

                     19                     20                     21
                      A                      A                      A
 Frequencies --    211.2074               214.8542               237.8904
 Red. masses --     42.4609                22.9287                 1.8110
 Frc consts  --      1.1160                 0.6236                 0.0604
 IR Inten    --      1.9939                 0.4306                 2.4074

                     22                     23                     24
                      A                      A                      A
 Frequencies --    252.0243               270.1373               278.8443
 Red. masses --     13.9490                14.6135                 6.3497
 Frc consts  --      0.5220                 0.6283                 0.2909
 IR Inten    --      5.5585                 2.8621                 7.6219

                     25                     26                     27
                      A                      A                      A
 Frequencies --    295.2615               303.1681               323.8924
 Red. masses --     16.6315                31.9417                32.5560
 Frc consts  --      0.8543                 1.7297                 2.0123
 IR Inten    --      7.7402                 1.3918                 3.5101

                     28                     29                     30
                      A                      A                      A
 Frequencies --    325.8123               346.1994               351.0855
 Red. masses --     17.5330                23.0753                11.5353
 Frc consts  --      1.0966                 1.6295                 0.8377
 IR Inten    --      5.0636                 9.3037                15.2705

                     31                     32                     33
                      A                      A                      A
 Frequencies --    358.7533               359.4710               361.1210
 Red. masses --      8.9469                 7.7988                 3.1858
 Frc consts  --      0.6784                 0.5938                 0.2448
 IR Inten    --     26.9445                90.1054                 6.1957

                     34                     35                     36
                      A                      A                      A
 Frequencies --    370.1503               383.9456               420.5544
 Red. masses --      1.8103                 1.4684                14.9462
 Frc consts  --      0.1461                 0.1275                 1.5575
 IR Inten    --      9.4010                 8.1818                16.7086

                     37                     38                     39
                      A                      A                      A
 Frequencies --    433.2296               445.6017               457.8280
 Red. masses --     14.3756                29.0878                18.5287
 Frc consts  --      1.5897                 3.4029                 2.2882
 IR Inten    --     17.4796                 9.6339                10.0291

                     40                     41                     42
                      A                      A                      A
 Frequencies --    462.2412               508.1960               546.2478
 Red. masses --     17.2712                 1.1169                 1.0562
 Frc consts  --      2.1742                 0.1699                 0.1857
 IR Inten    --     34.0488                10.5191                 1.5515

                     43                     44                     45
                      A                      A                      A
 Frequencies --    595.1022               611.8384               639.5170
 Red. masses --      1.0835                 1.0678                 1.0679
 Frc consts  --      0.2261                 0.2355                 0.2573
 IR Inten    --     11.4540                13.0253                 3.0532

                     46                     47                     48
                      A                      A                      A
 Frequencies --    700.9881               719.1724              1217.2702
 Red. masses --      1.0453                 1.0464                 1.0380
 Frc consts  --      0.3026                 0.3189                 0.9062
 IR Inten    --     10.8814                11.6092                 3.0909

                     49                     50                     51
                      A                      A                      A
 Frequencies --   2636.4164              2665.9707              2676.5255
 Red. masses --      1.0384                 1.0387                 1.0384
 Frc consts  --      4.2526                 4.3498                 4.3830
 IR Inten    --      3.7524                 1.4802                 0.2239

                     52                     53                     54
                      A                      A                      A
 Frequencies --   2676.7502              2678.9730              2694.4342
 Red. masses --      1.0386                 1.0354                 1.0402
 Frc consts  --      4.3844                 4.3781                 4.4495
 IR Inten    --      2.9476                 1.6756                 1.7471

 - Thermochemistry -
 -------------------
 Temperature   298.150 Kelvin.  Pressure   1.00000 Atm.
 Atom     1 has atomic number 42 and mass  97.90550

 Molecular mass:   717.38967 amu.
 Principal axes and moments of inertia in atomic units:
                           1         2         3
     Eigenvalues --  7035.67443********************
           X            0.96174   0.11434   0.24897
           Y           -0.21498   0.87828   0.42709
           Z           -0.16983  -0.46427   0.86926
 This molecule is an asymmetric top.
 Rotational symmetry number  1.
 Warning -- assumption of classical behavior for rotation
           may cause significant error
 Rotational temperatures (Kelvin)      0.01231     0.00569     0.00493
 Rotational constants (GHZ):           0.25651     0.11858     0.10272
 Zero-point vibrational energy     185962.2 (Joules/Mol)
                                   44.44604 (Kcal/Mol)
 Warning -- explicit consideration of  44 degrees of freedom as
           vibrations may cause significant error
 Vibrational temperatures:     60.54    68.93    72.84    77.24    91.07
          (Kelvin)            118.37   133.63   149.79   169.95   178.67
                              186.19   206.90   209.64   229.29   235.76
                              248.68   253.58   272.48   303.88   309.13
                              342.27   362.61   388.67   401.19   424.82
                              436.19   466.01   468.77   498.10   505.13
                              516.17   517.20   519.57   532.56   552.41
                              605.08   623.32   641.12   658.71   665.06
                              731.18   785.93   856.22   880.30   920.12
                             1008.57  1034.73  1751.38  3793.22  3835.74
                             3850.92  3851.25  3854.44  3876.69

 Zero-point correction=                           0.070829 (Hartree/Particle)
 Thermal correction to Energy=                    0.095952
 Thermal correction to Enthalpy=                  0.096897
 Thermal correction to Gibbs Free Energy=         0.014249
 Sum of electronic and zero-point Energies=          -4256.022962
 Sum of electronic and thermal Energies=             -4255.997839
 Sum of electronic and thermal Enthalpies=           -4255.996895
 Sum of electronic and thermal Free Energies=        -4256.079542

                     E (Thermal)             CV                S
                      KCal/Mol        Cal/Mol-Kelvin    Cal/Mol-Kelvin
 Total                   60.211             82.846            173.946
 Electronic               0.000              0.000              0.000
 Translational            0.889              2.981             45.592
 Rotational               0.889              2.981             35.885
 Vibrational             58.434             76.885             92.469
 Vibration     1          0.595              1.980              5.159
 Vibration     2          0.595              1.978              4.902
 Vibration     3          0.595              1.977              4.793
 Vibration     4          0.596              1.976              4.677
 Vibration     5          0.597              1.972              4.352
 Vibration     6          0.600              1.961              3.836
 Vibration     7          0.602              1.954              3.598
 Vibration     8          0.605              1.946              3.376
 Vibration     9          0.608              1.934              3.131
 Vibration    10          0.610              1.929              3.034
 Vibration    11          0.612              1.924              2.955
 Vibration    12          0.616              1.909              2.753
 Vibration    13          0.617              1.907              2.728
 Vibration    14          0.621              1.892              2.557
 Vibration    15          0.623              1.887              2.505
 Vibration    16          0.626              1.876              2.404
 Vibration    17          0.628              1.872              2.368
 Vibration    18          0.633              1.854              2.234
 Vibration    19          0.643              1.824              2.033
 Vibration    20          0.645              1.818              2.002
 Vibration    21          0.656              1.783              1.819
 Vibration    22          0.664              1.759              1.716
 Vibration    23          0.674              1.728              1.595
 Vibration    24          0.679              1.713              1.541
 Vibration    25          0.689              1.683              1.444
 Vibration    26          0.695              1.668              1.399
 Vibration    27          0.708              1.628              1.290
 Vibration    28          0.710              1.624              1.281
 Vibration    29          0.724              1.583              1.183
 Vibration    30          0.728              1.573              1.161
 Vibration    31          0.734              1.557              1.128
 Vibration    32          0.734              1.556              1.124
 Vibration    33          0.735              1.552              1.117
 Vibration    34          0.742              1.534              1.079
 Vibration    35          0.753              1.504              1.024
 Vibration    36          0.783              1.426              0.890
 Vibration    37          0.794              1.398              0.848
 Vibration    38          0.805              1.371              0.809
 Vibration    39          0.816              1.344              0.772
 Vibration    40          0.820              1.334              0.760
 Vibration    41          0.863              1.232              0.638
 Vibration    42          0.901              1.148              0.552
 Vibration    43          0.953              1.042              0.458
 Vibration    44          0.971              1.007              0.430

                           ! Non-Optimized Parameters !
 Normal termination of Gaussian 16 at Thu Oct 27 18:01:49 2022.
