 Gaussian 16, Revision C.01,
 Gaussian 16:  ES64L-G16RevC.01  3-Jul-2019

 -----------------------------------------------------------
 # opt=(calcfc,ts,noeigen) freq b3lyp/gen nosymm pseudo=read
 -----------------------------------------------------------

 -------------------
 Title Card Required
 -------------------
 Symbolic Z-matrix:
 Charge =  0 Multiplicity = 1

 SCF Done:  E(RB3LYP) =  -4256.04112209     A.U. after   26 cycles
 SCF Done:  E(RB3LYP) =  -4256.04218592     A.U. after   17 cycles
 SCF Done:  E(RB3LYP) =  -4256.04240197     A.U. after   17 cycles
 SCF Done:  E(RB3LYP) =  -4256.04255769     A.U. after   17 cycles
 SCF Done:  E(RB3LYP) =  -4256.04260261     A.U. after   17 cycles
 SCF Done:  E(RB3LYP) =  -4256.04260294     A.U. after   16 cycles
 SCF Done:  E(RB3LYP) =  -4256.04182003     A.U. after   18 cycles
 SCF Done:  E(RB3LYP) =  -4256.04138789     A.U. after   18 cycles
 SCF Done:  E(RB3LYP) =  -4256.04118253     A.U. after   18 cycles
 SCF Done:  E(RB3LYP) =  -4256.04210443     A.U. after   17 cycles
 SCF Done:  E(RB3LYP) =  -4256.04236383     A.U. after   17 cycles
 SCF Done:  E(RB3LYP) =  -4256.04252246     A.U. after   17 cycles
 SCF Done:  E(RB3LYP) =  -4256.04258999     A.U. after   17 cycles
 SCF Done:  E(RB3LYP) =  -4256.04261044     A.U. after   16 cycles
 SCF Done:  E(RB3LYP) =  -4256.04261036     A.U. after   15 cycles
 SCF Done:  E(RB3LYP) =  -4256.04261300     A.U. after   14 cycles
 SCF Done:  E(RB3LYP) =  -4256.04261276     A.U. after   15 cycles
 SCF Done:  E(RB3LYP) =  -4256.04261341     A.U. after   15 cycles
 Optimization completed.
    -- Stationary point found.
 Normal termination of Gaussian 16 at Tue Nov  1 11:28:43 2022.

 ------------------------------------------------------------------
 #N Geom=AllCheck Guess=TCheck SCRF=Check GenChk RB3LYP/ChkBas Freq
 ------------------------------------------------------------------

 Structure from the checkpoint file:  "/localscratch/chesayan/sagar/Gau-162648.chk"
 -------------------
 Title Card Required
 -------------------
 Charge =  0 Multiplicity = 1

                          Input orientation:
 ---------------------------------------------------------------------
 Center     Atomic      Atomic             Coordinates (Angstroms)
 Number     Number       Type             X           Y           Z
 ---------------------------------------------------------------------
      1         42           0       -0.000670    1.109519   11.391975
      2         16           0        1.423091    2.986522   11.764004
      3         16           0       -1.568279    1.558062   13.124338
      4         16           0       -1.179165    1.507914    9.395336
      5         16           0        1.242310   -0.666606   10.685554
      6         42           0       -2.305416    2.594162   11.215599
      7         16           0       -4.405414    2.040573   10.372470
      8          1           0       -4.231759    1.125161    9.396857
      9         16           0       -1.521186    4.764762   11.226631
     10         42           0       -0.042361    3.496094   10.005385
     11         16           0        0.659174    5.219528    8.549999
     12          1           0       -0.350399    6.104293    8.703645
     13         16           0        2.216764    2.295957    8.363491
     14          1           0        3.156516    1.298166    7.364028
     15         42           0        2.545907    1.288858   10.324701
     16         16           0        4.510351    1.856566   11.544488
     17          1           0        4.124239    2.902292   12.306873
     18         16           0        4.165217   -0.141293    9.156780
     19          1           0        3.444389   -1.250226    8.885950
     20          1           0        3.734010    0.609709    7.695523
 ---------------------------------------------------------------------

 SCF Done:  E(RB3LYP) =  -4256.04261341     A.U. after    1 cycles

 Alpha  occ. eigenvalues --  -88.91797 -88.91005 -88.90681 -88.89991 -88.88918
 Alpha  occ. eigenvalues --  -88.88820 -88.88819 -88.88637 -88.87918 -88.86299
 Alpha  occ. eigenvalues --   -7.99463  -7.98606  -7.98545  -7.97637  -7.96705
 Alpha  occ. eigenvalues --   -7.96679  -7.96419  -7.96340  -7.95707  -7.93998
 Alpha  occ. eigenvalues --   -5.95442  -5.95405  -5.95397  -5.94649  -5.94583
 Alpha  occ. eigenvalues --   -5.94536  -5.94483  -5.94458  -5.94433  -5.93830
 Alpha  occ. eigenvalues --   -5.93656  -5.93289  -5.92937  -5.92728  -5.92714
 Alpha  occ. eigenvalues --   -5.92656  -5.92587  -5.92584  -5.92558  -5.92379
 Alpha  occ. eigenvalues --   -5.92288  -5.92152  -5.92144  -5.92123  -5.91716
 Alpha  occ. eigenvalues --   -5.91674  -5.91576  -5.90280  -5.89883  -5.89693
 Alpha  occ. eigenvalues --   -2.56493  -2.55447  -2.54567  -2.53178  -1.59884
 Alpha  occ. eigenvalues --   -1.59172  -1.58542  -1.58311  -1.57896  -1.57280
 Alpha  occ. eigenvalues --   -1.56717  -1.56573  -1.56231  -1.55944  -1.55273
 Alpha  occ. eigenvalues --   -1.54421  -0.76405  -0.75606  -0.74288  -0.74118
 Alpha  occ. eigenvalues --   -0.73681  -0.73043  -0.71742  -0.71375  -0.71152
 Alpha  occ. eigenvalues --   -0.70278  -0.49973  -0.45547  -0.45090  -0.44073
 Alpha  occ. eigenvalues --   -0.41743  -0.41209  -0.40906  -0.40817  -0.39789
 Alpha  occ. eigenvalues --   -0.39465  -0.39276  -0.38988  -0.37276  -0.36403
 Alpha  occ. eigenvalues --   -0.35836  -0.35536  -0.35077  -0.34486  -0.34034
 Alpha  occ. eigenvalues --   -0.33790  -0.32916  -0.32649  -0.32485  -0.31560
 Alpha  occ. eigenvalues --   -0.31040  -0.30199  -0.29468  -0.29301  -0.28529
 Alpha  occ. eigenvalues --   -0.28165  -0.27118  -0.26611  -0.26141  -0.24654
 Alpha  occ. eigenvalues --   -0.24510
 Alpha virt. eigenvalues --   -0.16188  -0.14965  -0.14671  -0.13905  -0.13303
 Alpha virt. eigenvalues --   -0.11689  -0.11536  -0.10528  -0.09842  -0.09739
 Alpha virt. eigenvalues --   -0.08972  -0.08771  -0.07461  -0.07278  -0.06704

 Mulliken charges:
               1
     1  Mo   0.082167
     2  S    0.117862
     3  S   -0.082733
     4  S    0.148636
     5  S   -0.095302
     6  Mo   0.035531
     7  S   -0.135091
     8  H    0.100604
     9  S   -0.012361
    10  Mo  -0.102650
    11  S   -0.060916
    12  H    0.089938
    13  S   -0.052579
    14  H    0.009139
    15  Mo  -0.240600
    16  S   -0.049318
    17  H    0.070949
    18  S    0.039031
    19  H    0.116230
    20  H    0.021463
 Sum of Mulliken charges =  -0.00000

 Dipole moment (field-independent basis, Debye):
    X=             -2.9485    Y=             -0.0748    Z=             -1.0543  Tot=              3.1322
 Quadrupole moment (field-independent basis, Debye-Ang):
   XX=           -238.5633   YY=           -220.1472   ZZ=           -248.4757
   XY=             -8.2242   XZ=            -29.3500   YZ=              3.4976

  Exact polarizability:     505.875     -59.428     351.242     -38.453     -12.570     300.616
 Approx polarizability:    1229.095    -145.933    1021.758    -111.898     -81.282     891.597

 ******    1 imaginary frequencies (negative Signs) ******

                      1                      2                      3
                      A                      A                      A
 Frequencies --  -1138.2674                25.5666                45.0674
 Red. masses --      1.1092                13.7464                13.0140
 Frc consts  --      0.8467                 0.0053                 0.0156
 IR Inten    --   1776.7388                 1.5365                 1.2766

                      4                      5                      6
                      A                      A                      A
 Frequencies --     52.9617                59.5289                81.3699
 Red. masses --     17.6640                17.3722                18.1661
 Frc consts  --      0.0292                 0.0363                 0.0709
 IR Inten    --      1.3488                 0.3881                 1.0970

                      7                      8                      9
                      A                      A                      A
 Frequencies --    101.9747               106.1206               118.2845
 Red. masses --     17.7793                16.8748                17.0250
 Frc consts  --      0.1089                 0.1120                 0.1403
 IR Inten    --      0.4414                 0.2685                 0.5932

                     10                     11                     12
                      A                      A                      A
 Frequencies --    120.4910               129.4272               133.6755
 Red. masses --     22.4999                15.3501                17.0581
 Frc consts  --      0.1925                 0.1515                 0.1796
 IR Inten    --      0.2984                 1.0341                 1.2117

                     13                     14                     15
                      A                      A                      A
 Frequencies --    143.8066               147.9162               161.7378
 Red. masses --     24.2673                17.4732                16.7085
 Frc consts  --      0.2957                 0.2252                 0.2575
 IR Inten    --      0.5766                 0.7805                 0.8830

                     16                     17                     18
                      A                      A                      A
 Frequencies --    176.0181               194.4000               203.0220
 Red. masses --     15.6143                32.8572                30.5646
 Frc consts  --      0.2850                 0.7316                 0.7423
 IR Inten    --      1.5309                 2.8379                 0.1581

                     19                     20                     21
                      A                      A                      A
 Frequencies --    220.9800               261.6708               269.1693
 Red. masses --     37.8687                 8.3893                 1.7561
 Frc consts  --      1.0895                 0.3384                 0.0750
 IR Inten    --      5.0243                 5.0198                 5.7284

                     22                     23                     24
                      A                      A                      A
 Frequencies --    273.0647               282.0016               301.2745
 Red. masses --     10.9624                14.1268                 7.1486
 Frc consts  --      0.4816                 0.6619                 0.3823
 IR Inten    --      4.2989                 9.2406                 2.9438

                     25                     26                     27
                      A                      A                      A
 Frequencies --    306.8455               314.4365               320.3072
 Red. masses --      2.7049                 3.2750                 3.8168
 Frc consts  --      0.1501                 0.1908                 0.2307
 IR Inten    --      2.8117                11.7560                 2.1678

                     28                     29                     30
                      A                      A                      A
 Frequencies --    334.9108               344.3133               357.7252
 Red. masses --     23.1025                14.4962                 7.1986
 Frc consts  --      1.5267                 1.0125                 0.5427
 IR Inten    --     27.5397                10.3772                22.1301

                     31                     32                     33
                      A                      A                      A
 Frequencies --    361.5307               367.1387               369.2441
 Red. masses --      4.6354                12.2462                 3.4555
 Frc consts  --      0.3570                 0.9726                 0.2776
 IR Inten    --     45.0403                26.5429                22.2982

                     34                     35                     36
                      A                      A                      A
 Frequencies --    384.2973               397.6702               421.4933
 Red. masses --      2.3303                 1.1840                16.1848
 Frc consts  --      0.2028                 0.1103                 1.6941
 IR Inten    --      9.5694                13.0330                14.3344

                     37                     38                     39
                      A                      A                      A
 Frequencies --    436.3009               444.2678               454.8167
 Red. masses --     31.0256                29.2982                13.4699
 Frc consts  --      3.4797                 3.4071                 1.6417
 IR Inten    --     12.9785                12.8557                17.4710

                     40                     41                     42
                      A                      A                      A
 Frequencies --    462.0133               468.0179               614.4251
 Red. masses --     22.7905                21.9631                 1.0757
 Frc consts  --      2.8662                 2.8345                 0.2393
 IR Inten    --      4.4921                37.4212                 7.1155

                     43                     44                     45
                      A                      A                      A
 Frequencies --    625.4145               637.3136               688.4025
 Red. masses --      1.0751                 1.0519                 1.0330
 Frc consts  --      0.2478                 0.2517                 0.2884
 IR Inten    --     16.4867                12.9409                 5.7257

                     46                     47                     48
                      A                      A                      A
 Frequencies --    746.9873              1001.3013              1102.8469
 Red. masses --      1.0428                 1.0430                 1.0144
 Frc consts  --      0.3428                 0.6161                 0.7269
 IR Inten    --     11.6484                12.8766                 2.8674

                     49                     50                     51
                      A                      A                      A
 Frequencies --   1167.0221              1586.3048              2659.1208
 Red. masses --      1.0230                 1.0243                 1.0385
 Frc consts  --      0.8209                 1.5186                 4.3264
 IR Inten    --     28.6264               132.0730                 4.3358

                     52                     53                     54
                      A                      A                      A
 Frequencies --   2665.8393              2671.9877              2676.1250
 Red. masses --      1.0380                 1.0386                 1.0386
 Frc consts  --      4.3463                 4.3687                 4.3823
 IR Inten    --      2.1810                 0.5739                 0.0009

 - Thermochemistry -
 -------------------
 Temperature   298.150 Kelvin.  Pressure   1.00000 Atm.
 Atom     1 has atomic number 42 and mass  97.90550

 Molecular mass:   717.38967 amu.
 Principal axes and moments of inertia in atomic units:
                           1         2         3
     Eigenvalues --  7037.10287********************
           X            0.94780   0.18047   0.26286
           Y           -0.28341   0.85459   0.43515
           Z           -0.14611  -0.48693   0.86113
 This molecule is an asymmetric top.
 Rotational symmetry number  1.
 Warning -- assumption of classical behavior for rotation
           may cause significant error
 Rotational temperatures (Kelvin)      0.01231     0.00551     0.00475
 Rotational constants (GHZ):           0.25646     0.11473     0.09895
    1 imaginary frequencies ignored.
 Zero-point vibrational energy     173446.3 (Joules/Mol)
                                   41.45465 (Kcal/Mol)
 Warning -- explicit consideration of  41 degrees of freedom as
           vibrations may cause significant error
 Vibrational temperatures:     36.78    64.84    76.20    85.65   117.07
          (Kelvin)            146.72   152.68   170.19   173.36   186.22
                              192.33   206.91   212.82   232.70   253.25
                              279.70   292.10   317.94   376.49   387.27
                              392.88   405.74   433.47   441.48   452.40
                              460.85   481.86   495.39   514.69   520.16
                              528.23   531.26   552.92   572.16   606.43
                              627.74   639.20   654.38   664.73   673.37
                              884.02   899.83   916.95   990.46  1074.75
                             1440.65  1586.75  1679.08  2282.34  3825.88
                             3835.55  3844.39  3850.35

 Zero-point correction=                           0.066062 (Hartree/Particle)
 Thermal correction to Energy=                    0.089977
 Thermal correction to Enthalpy=                  0.090921
 Thermal correction to Gibbs Free Energy=         0.010800
 Sum of electronic and zero-point Energies=          -4255.976551
 Sum of electronic and thermal Energies=             -4255.952636
 Sum of electronic and thermal Enthalpies=           -4255.951692
 Sum of electronic and thermal Free Energies=        -4256.031813

                     E (Thermal)             CV                S
                      KCal/Mol        Cal/Mol-Kelvin    Cal/Mol-Kelvin
 Total                   56.461             80.041            168.629
 Electronic               0.000              0.000              0.000
 Translational            0.889              2.981             45.592
 Rotational               0.889              2.981             35.955
 Vibrational             54.684             74.079             87.082
 Vibration     1          0.593              1.985              6.147
 Vibration     2          0.595              1.979              5.023
 Vibration     3          0.596              1.976              4.704
 Vibration     4          0.597              1.974              4.473
 Vibration     5          0.600              1.962              3.858
 Vibration     6          0.604              1.948              3.416
 Vibration     7          0.605              1.944              3.339
 Vibration     8          0.608              1.934              3.128
 Vibration     9          0.609              1.932              3.092
 Vibration    10          0.612              1.924              2.955
 Vibration    11          0.613              1.920              2.892
 Vibration    12          0.616              1.909              2.753
 Vibration    13          0.617              1.905              2.699
 Vibration    14          0.622              1.889              2.529
 Vibration    15          0.628              1.872              2.370
 Vibration    16          0.635              1.848              2.185
 Vibration    17          0.639              1.836              2.106
 Vibration    18          0.648              1.809              1.951
 Vibration    19          0.669              1.743              1.651
 Vibration    20          0.674              1.730              1.602
 Vibration    21          0.676              1.723              1.577
 Vibration    22          0.681              1.707              1.521
 Vibration    23          0.693              1.671              1.410
 Vibration    24          0.697              1.661              1.379
 Vibration    25          0.702              1.646              1.339
 Vibration    26          0.706              1.635              1.309
 Vibration    27          0.716              1.606              1.236
 Vibration    28          0.723              1.587              1.192
 Vibration    29          0.733              1.559              1.132
 Vibration    30          0.736              1.552              1.116
 Vibration    31          0.740              1.540              1.092
 Vibration    32          0.742              1.535              1.083
 Vibration    33          0.753              1.504              1.022
 Vibration    34          0.764              1.475              0.971
 Vibration    35          0.784              1.424              0.887
 Vibration    36          0.797              1.391              0.838
 Vibration    37          0.804              1.374              0.813
 Vibration    38          0.813              1.350              0.781
 Vibration    39          0.820              1.334              0.760
 Vibration    40          0.825              1.321              0.743
 Vibration    41          0.974              1.001              0.426

 Optimization completed.
    -- Stationary point found.
 Normal termination of Gaussian 16 at Tue Nov  1 11:30:06 2022.
