 Gaussian 16, Revision C.01,
 Gaussian 16:  ES64L-G16RevC.01  3-Jul-2019

 ---------------------------------------
 # opt freq b3lyp/gen nosymm pseudo=read
 ---------------------------------------

 -------------------
 Title Card Required
 -------------------
 Symbolic Z-matrix:
 Charge =  0 Multiplicity = 1

 SCF Done:  E(RB3LYP) =  -4662.51460598     A.U. after   27 cycles
 SCF Done:  E(RB3LYP) =  -4662.52200246     A.U. after   20 cycles
 SCF Done:  E(RB3LYP) =  -4662.53091651     A.U. after   19 cycles
 SCF Done:  E(RB3LYP) =  -4662.53162110     A.U. after   17 cycles
 SCF Done:  E(RB3LYP) =  -4662.53145070     A.U. after   18 cycles
 SCF Done:  E(RB3LYP) =  -4662.53207083     A.U. after   17 cycles
 SCF Done:  E(RB3LYP) =  -4662.53219826     A.U. after   16 cycles
 SCF Done:  E(RB3LYP) =  -4662.53233588     A.U. after   17 cycles
 SCF Done:  E(RB3LYP) =  -4662.53235929     A.U. after   16 cycles
 SCF Done:  E(RB3LYP) =  -4662.53236723     A.U. after   15 cycles
 SCF Done:  E(RB3LYP) =  -4662.53237152     A.U. after   14 cycles
 SCF Done:  E(RB3LYP) =  -4662.53237314     A.U. after   13 cycles
 SCF Done:  E(RB3LYP) =  -4662.53237375     A.U. after   13 cycles
 SCF Done:  E(RB3LYP) =  -4662.53237418     A.U. after   12 cycles
 SCF Done:  E(RB3LYP) =  -4662.53237435     A.U. after   11 cycles
 Optimization completed.
    -- Stationary point found.
 Normal termination of Gaussian 16 at Thu Nov  3 17:59:54 2022.

 ------------------------------------------------------------------
 #N Geom=AllCheck Guess=TCheck SCRF=Check GenChk RB3LYP/ChkBas Freq
 ------------------------------------------------------------------

 Structure from the checkpoint file:  "/home/chesagar/scratch/Gau-80853.chk"
 -------------------
 Title Card Required
 -------------------
 Charge =  0 Multiplicity = 1

                          Input orientation:
 ---------------------------------------------------------------------
 Center     Atomic      Atomic             Coordinates (Angstroms)
 Number     Number       Type             X           Y           Z
 ---------------------------------------------------------------------
      1         42           0        0.455177    1.414818   11.681231
      2         16           0        1.263652    3.588430   11.937870
      3         16           0       -1.598949    1.413174   12.848340
      4         16           0       -0.215793    1.015430    9.455952
      5         16           0        2.217908   -0.013183   11.654860
      6         42           0       -1.975154    2.096301   10.655532
      7         16           0       -3.357075    1.635568    8.711459
      8          1           0       -2.595835    0.827895    7.939374
      9         16           0       -1.624177    4.403015   10.783182
     10         42           0        0.224184    3.318641    9.683454
     11         16           0       -0.192264    3.532663    7.269468
     12          1           0       -0.207026    2.234019    6.894483
     13         16           0        2.679800    2.820057    8.926291
     14         42           0        3.089204    2.166571   11.008205
     15         42           0       -2.404711    4.083560    8.430792
     16          6           0       -3.247496    4.130035    6.550488
     17          6           0       -1.879409    6.008619    8.171210
     18          6           0       -4.214548    4.690462    9.132691
     19          8           0       -3.725777    4.177781    5.507893
     20          8           0       -1.602989    7.117778    8.011994
     21          8           0       -5.241307    5.055844    9.506440
     22         16           0        4.286087    3.801684   12.252664
     23          1           0        5.565451    3.370676   12.170212
     24         16           0        5.089814    0.924851   10.820527
     25          1           0        5.999442    1.911686   10.637587
 ---------------------------------------------------------------------

 SCF Done:  E(RB3LYP) =  -4662.53237435     A.U. after    3 cycles

 Alpha  occ. eigenvalues --  -88.92016 -88.91655 -88.91216 -88.91110 -88.90287
 Alpha  occ. eigenvalues --  -88.88709 -88.88012 -88.87921 -88.86880 -88.86705
 Alpha  occ. eigenvalues --  -19.27068 -19.25749 -19.24960 -10.34236 -10.33075
 Alpha  occ. eigenvalues --  -10.32489  -7.99648  -7.99152  -7.98716  -7.98656
 Alpha  occ. eigenvalues --   -7.97857  -7.96432  -7.95733  -7.95730  -7.94570
 Alpha  occ. eigenvalues --   -7.94380  -5.95636  -5.95608  -5.95563  -5.95228
 Alpha  occ. eigenvalues --   -5.95100  -5.95030  -5.94973  -5.94923  -5.94633
 Alpha  occ. eigenvalues --   -5.94541  -5.94457  -5.94412  -5.93872  -5.93853
 Alpha  occ. eigenvalues --   -5.93727  -5.92419  -5.92399  -5.92336  -5.91800
 Alpha  occ. eigenvalues --   -5.91762  -5.91711  -5.91706  -5.91584  -5.91513
 Alpha  occ. eigenvalues --   -5.90854  -5.90673  -5.90450  -5.90277  -5.90264
 Alpha  occ. eigenvalues --   -5.90053  -2.55355  -2.55059  -2.54924  -2.54822
 Alpha  occ. eigenvalues --   -2.50521  -1.59157  -1.58581  -1.58277  -1.58185
 Alpha  occ. eigenvalues --   -1.57588  -1.57150  -1.56994  -1.56816  -1.56477
 Alpha  occ. eigenvalues --   -1.56380  -1.56106  -1.55754  -1.53485  -1.52878
 Alpha  occ. eigenvalues --   -1.52639  -1.17320  -1.15962  -1.15171  -0.77243
 Alpha  occ. eigenvalues --   -0.76009  -0.74957  -0.74686  -0.73806  -0.72200
 Alpha  occ. eigenvalues --   -0.71464  -0.70934  -0.70349  -0.69937  -0.60192
 Alpha  occ. eigenvalues --   -0.58929  -0.58211  -0.49995  -0.49360  -0.49168
 Alpha  occ. eigenvalues --   -0.48625  -0.48422  -0.47664  -0.47192  -0.46941
 Alpha  occ. eigenvalues --   -0.46735  -0.45450  -0.45150  -0.44213  -0.42468
 Alpha  occ. eigenvalues --   -0.41860  -0.41707  -0.41122  -0.40647  -0.39741
 Alpha  occ. eigenvalues --   -0.39148  -0.38022  -0.37229  -0.36971  -0.36163
 Alpha  occ. eigenvalues --   -0.35875  -0.35702  -0.34653  -0.34269  -0.33952
 Alpha  occ. eigenvalues --   -0.33767  -0.33675  -0.33142  -0.33006  -0.31986
 Alpha  occ. eigenvalues --   -0.31469  -0.30754  -0.30171  -0.29322  -0.28776
 Alpha  occ. eigenvalues --   -0.28102  -0.27708  -0.27009  -0.25990  -0.25174
 Alpha  occ. eigenvalues --   -0.24818  -0.24333  -0.23840
 Alpha virt. eigenvalues --   -0.15568  -0.14935  -0.14370  -0.13764  -0.13515
 Alpha virt. eigenvalues --   -0.13284  -0.11951  -0.11676  -0.11042  -0.10071
 Alpha virt. eigenvalues --   -0.09638  -0.08974  -0.07930  -0.07376  -0.06509

 Mulliken charges:
               1
     1  Mo   0.105760
     2  S    0.132288
     3  S   -0.086389
     4  S    0.205371
     5  S   -0.042328
     6  Mo   0.002303
     7  S    0.011543
     8  H    0.101521
     9  S    0.198443
    10  Mo  -0.288072
    11  S    0.092170
    12  H    0.106415
    13  S   -0.046408
    14  Mo  -0.229631
    15  Mo  -0.448097
    16  C    0.260293
    17  C    0.259306
    18  C    0.254036
    19  O   -0.213305
    20  O   -0.237387
    21  O   -0.229161
    22  S   -0.015627
    23  H    0.052720
    24  S   -0.008310
    25  H    0.062548
 Sum of Mulliken charges =  -0.00000

 Dipole moment (field-independent basis, Debye):
    X=             -2.9793    Y=             -0.3482    Z=             -2.6540  Tot=              4.0051
 Quadrupole moment (field-independent basis, Debye-Ang):
   XX=           -282.1422   YY=           -288.8593   ZZ=           -335.3281
   XY=              0.0272   XZ=            -30.3190   YZ=             -6.1361

  Exact polarizability:     643.844     -83.591     375.384     118.148     -68.296     415.286
 Approx polarizability:    1622.098    -186.775    1065.255     209.792    -213.185    1227.170

                      1                      2                      3
                      A                      A                      A
 Frequencies --     37.4933                44.2352                49.9857
 Red. masses --     16.1758                17.5006                16.6418
 Frc consts  --      0.0134                 0.0202                 0.0245
 IR Inten    --      1.1202                 0.4818                 0.0142

                      4                      5                      6
                      A                      A                      A
 Frequencies --     56.8024                67.5742                77.4397
 Red. masses --     16.1103                17.9037                17.9195
 Frc consts  --      0.0306                 0.0482                 0.0633
 IR Inten    --      0.1113                 0.4830                 0.3870

                      7                      8                      9
                      A                      A                      A
 Frequencies --     78.6943                83.6254                90.8210
 Red. masses --     16.7745                16.3817                18.8989
 Frc consts  --      0.0612                 0.0675                 0.0918
 IR Inten    --      0.3777                 0.6661                 0.3270

                     10                     11                     12
                      A                      A                      A
 Frequencies --    100.3905               107.8699               111.0446
 Red. masses --     20.4909                18.2570                26.0105
 Frc consts  --      0.1217                 0.1252                 0.1890
 IR Inten    --      0.0821                 0.5876                 1.8658

                     13                     14                     15
                      A                      A                      A
 Frequencies --    116.8501               122.4882               124.7081
 Red. masses --     23.0329                28.0772                21.4217
 Frc consts  --      0.1853                 0.2482                 0.1963
 IR Inten    --      0.3760                 1.2825                 1.2620

                     16                     17                     18
                      A                      A                      A
 Frequencies --    136.7846               148.3366               152.5943
 Red. masses --     22.7235                22.1011                24.3684
 Frc consts  --      0.2505                 0.2865                 0.3343
 IR Inten    --      3.6290                 0.9158                 1.3378

                     19                     20                     21
                      A                      A                      A
 Frequencies --    156.5951               165.9674               186.6946
 Red. masses --     27.3725                25.9587                28.1605
 Frc consts  --      0.3955                 0.4213                 0.5783
 IR Inten    --      1.8003                 2.0054                 0.2956

                     22                     23                     24
                      A                      A                      A
 Frequencies --    194.1031               209.3752               214.0376
 Red. masses --     29.8810                18.0896                25.1114
 Frc consts  --      0.6633                 0.4672                 0.6778
 IR Inten    --      2.4595                 0.9223                 1.0027

                     25                     26                     27
                      A                      A                      A
 Frequencies --    221.9112               233.4787               258.9495
 Red. masses --     19.9656                31.2972                27.1633
 Frc consts  --      0.5793                 1.0052                 1.0732
 IR Inten    --     11.2861                 2.7837                14.7900

                     28                     29                     30
                      A                      A                      A
 Frequencies --    263.5278               275.4303               283.8804
 Red. masses --     22.8550                30.3491                28.2499
 Frc consts  --      0.9352                 1.3565                 1.3413
 IR Inten    --      1.7387                19.3194                 1.2057

                     31                     32                     33
                      A                      A                      A
 Frequencies --    291.2089               303.1331               316.2027
 Red. masses --     31.8475                32.0891                29.8977
 Frc consts  --      1.5912                 1.7373                 1.7612
 IR Inten    --      7.9396                 1.0000                 6.6607

                     34                     35                     36
                      A                      A                      A
 Frequencies --    320.1239               332.3704               342.3728
 Red. masses --     28.0662                33.7012                15.9341
 Frc consts  --      1.6946                 2.1935                 1.1005
 IR Inten    --      1.6148                10.0259                40.9462

                     37                     38                     39
                      A                      A                      A
 Frequencies --    349.2704               358.7101               375.1475
 Red. masses --     35.8052                20.9932                32.1675
 Frc consts  --      2.5735                 1.5915                 2.6673
 IR Inten    --      4.8685                16.4823                 0.9714

                     40                     41                     42
                      A                      A                      A
 Frequencies --    389.8385               403.3272               407.6211
 Red. masses --     15.6903                15.1129                10.1717
 Frc consts  --      1.4049                 1.4485                 0.9958
 IR Inten    --     40.5193                32.6511                12.9035

                     43                     44                     45
                      A                      A                      A
 Frequencies --    408.3471               412.0095               425.2895
 Red. masses --     11.6440                 1.2505                 8.0590
 Frc consts  --      1.1440                 0.1251                 0.8588
 IR Inten    --      8.5620                10.2292                 9.1877

                     46                     47                     48
                      A                      A                      A
 Frequencies --    428.5683               431.8976               438.2868
 Red. masses --     11.6664                 1.4019                 6.6372
 Frc consts  --      1.2625                 0.1541                 0.7512
 IR Inten    --     40.3203                 5.4138                23.9573

                     49                     50                     51
                      A                      A                      A
 Frequencies --    444.7291               454.1399               460.7730
 Red. masses --     26.3509                22.3601                19.1238
 Frc consts  --      3.0707                 2.7171                 2.3922
 IR Inten    --     10.8152                21.3241                16.6370

                     52                     53                     54
                      A                      A                      A
 Frequencies --    464.4237               467.0022               513.2297
 Red. masses --     13.3671                10.4285                 8.4548
 Frc consts  --      1.6987                 1.3400                 1.3121
 IR Inten    --     24.7429                17.4199                19.4105

                     55                     56                     57
                      A                      A                      A
 Frequencies --    539.0659               576.4705               583.4202
 Red. masses --      6.1575                 3.3267                 1.3344
 Frc consts  --      1.0542                 0.6514                 0.2676
 IR Inten    --     27.9250                62.5774                17.6242

                     58                     59                     60
                      A                      A                      A
 Frequencies --    626.8271               656.0063               671.7685
 Red. masses --      1.4496                 1.0793                 1.0518
 Frc consts  --      0.3356                 0.2737                 0.2797
 IR Inten    --     10.9731                20.1185                20.7012

                     61                     62                     63
                      A                      A                      A
 Frequencies --    732.9503               777.2073              2053.1082
 Red. masses --      1.0595                 1.0423                13.3948
 Frc consts  --      0.3354                 0.3710                33.2667
 IR Inten    --      2.3450                20.3373               725.3400

                     64                     65                     66
                      A                      A                      A
 Frequencies --   2084.7133              2116.5374              2628.4647
 Red. masses --     13.3794                13.3707                 1.0381
 Frc consts  --     34.2593                35.2903                 4.2255
 IR Inten    --    677.3694              2714.7951                16.2626

                     67                     68                     69
                      A                      A                      A
 Frequencies --   2632.8076              2638.1816              2641.8150
 Red. masses --      1.0386                 1.0387                 1.0380
 Frc consts  --      4.2418                 4.2594                 4.2684
 IR Inten    --      4.3979                 2.0959                21.2843

 - Thermochemistry -
 -------------------
 Temperature   298.150 Kelvin.  Pressure   1.00000 Atm.
 Atom     1 has atomic number 42 and mass  97.90550

 Molecular mass:   897.26426 amu.
 Principal axes and moments of inertia in atomic units:
                           1         2         3
     Eigenvalues --  9954.22891********************
           X            0.85939  -0.50838  -0.05474
           Y           -0.30404  -0.59415   0.74467
           Z            0.41110   0.62332   0.66518
 This molecule is an asymmetric top.
 Rotational symmetry number  1.
 Warning -- assumption of classical behavior for rotation
           may cause significant error
 Rotational temperatures (Kelvin)      0.00870     0.00318     0.00282
 Rotational constants (GHZ):           0.18130     0.06633     0.05883
 Zero-point vibrational energy     214544.6 (Joules/Mol)
                                   51.27739 (Kcal/Mol)
 Warning -- explicit consideration of  57 degrees of freedom as
           vibrations may cause significant error
 Vibrational temperatures:     53.94    63.64    71.92    81.73    97.22
          (Kelvin)            111.42   113.22   120.32   130.67   144.44
                              155.20   159.77   168.12   176.23   179.43
                              196.80   213.42   219.55   225.31   238.79
                              268.61   279.27   301.24   307.95   319.28
                              335.92   372.57   379.16   396.28   408.44
                              418.98   436.14   454.95   460.59   478.21
                              492.60   502.52   516.10   539.75   560.89
                              580.30   586.48   587.52   592.79   611.90
                              616.61   621.40   630.60   639.87   653.41
                              662.95   668.20   671.91   738.42   775.60
                              829.41   839.41   901.86   943.85   966.53
                             1054.55  1118.23  2953.96  2999.44  3045.23
                             3781.77  3788.02  3795.75  3800.98

 Zero-point correction=                           0.081716 (Hartree/Particle)
 Thermal correction to Energy=                    0.113062
 Thermal correction to Enthalpy=                  0.114007
 Thermal correction to Gibbs Free Energy=         0.018374
 Sum of electronic and zero-point Energies=          -4662.450659
 Sum of electronic and thermal Energies=             -4662.419312
 Sum of electronic and thermal Enthalpies=           -4662.418368
 Sum of electronic and thermal Free Energies=        -4662.514001

                     E (Thermal)             CV                S
                      KCal/Mol        Cal/Mol-Kelvin    Cal/Mol-Kelvin
 Total                   70.948            105.594            201.277
 Electronic               0.000              0.000              0.000
 Translational            0.889              2.981             46.258
 Rotational               0.889              2.981             37.361
 Vibrational             69.170             99.632            117.657
 Vibration     1          0.594              1.982              5.387
 Vibration     2          0.595              1.980              5.060
 Vibration     3          0.595              1.978              4.818
 Vibration     4          0.596              1.975              4.565
 Vibration     5          0.598              1.970              4.223
 Vibration     6          0.599              1.964              3.955
 Vibration     7          0.600              1.963              3.923
 Vibration     8          0.601              1.960              3.804
 Vibration     9          0.602              1.956              3.642
 Vibration    10          0.604              1.949              3.447
 Vibration    11          0.606              1.943              3.307
 Vibration    12          0.607              1.940              3.251
 Vibration    13          0.608              1.935              3.152
 Vibration    14          0.610              1.930              3.061
 Vibration    15          0.610              1.928              3.026
 Vibration    16          0.614              1.917              2.848
 Vibration    17          0.618              1.904              2.693
 Vibration    18          0.619              1.900              2.640
 Vibration    19          0.620              1.895              2.591
 Vibration    20          0.624              1.884              2.481
 Vibration    21          0.632              1.858              2.260
 Vibration    22          0.635              1.848              2.188
 Vibration    23          0.642              1.826              2.049
 Vibration    24          0.644              1.820              2.009
 Vibration    25          0.648              1.808              1.943
 Vibration    26          0.654              1.790              1.852
 Vibration    27          0.668              1.748              1.669
 Vibration    28          0.670              1.740              1.638
 Vibration    29          0.677              1.719              1.562
 Vibration    30          0.682              1.704              1.510
 Vibration    31          0.687              1.690              1.467
 Vibration    32          0.695              1.668              1.400
 Vibration    33          0.703              1.643              1.330
 Vibration    34          0.706              1.635              1.309
 Vibration    35          0.714              1.611              1.249
 Vibration    36          0.722              1.591              1.201
 Vibration    37          0.727              1.577              1.169
 Vibration    38          0.734              1.557              1.128
 Vibration    39          0.746              1.523              1.059
 Vibration    40          0.758              1.492              1.001
 Vibration    41          0.769              1.463              0.951
 Vibration    42          0.772              1.454              0.935
 Vibration    43          0.773              1.452              0.932
 Vibration    44          0.776              1.444              0.920
 Vibration    45          0.787              1.415              0.874
 Vibration    46          0.790              1.408              0.863
 Vibration    47          0.793              1.401              0.852
 Vibration    48          0.798              1.387              0.832
 Vibration    49          0.804              1.373              0.812
 Vibration    50          0.813              1.352              0.783
 Vibration    51          0.819              1.337              0.764
 Vibration    52          0.822              1.329              0.753
 Vibration    53          0.824              1.323              0.746
 Vibration    54          0.868              1.221              0.626
 Vibration    55          0.894              1.164              0.567
 Vibration    56          0.933              1.082              0.492
 Vibration    57          0.940              1.067              0.479

 Optimization completed.
    -- Stationary point found.
 Normal termination of Gaussian 16 at Thu Nov  3 18:03:28 2022.
