 Gaussian 16, Revision C.01,
 Gaussian 16:  ES64L-G16RevC.01  3-Jul-2019

 ---------------------------------------
 # opt freq b3lyp/gen nosymm pseudo=read
 ---------------------------------------

 -------------------
 Title Card Required
 -------------------
 Symbolic Z-matrix:
 Charge =  0 Multiplicity = 1

 SCF Done:  E(RB3LYP) =  -4549.16673938     A.U. after   28 cycles
 SCF Done:  E(RB3LYP) =  -4549.16674029     A.U. after   13 cycles
 SCF Done:  E(RB3LYP) =  -4549.16674060     A.U. after   13 cycles
 SCF Done:  E(RB3LYP) =  -4549.16674066     A.U. after   11 cycles
 Optimization completed.
    -- Stationary point found.
 Normal termination of Gaussian 16 at Fri Nov  4 08:39:31 2022.

 ------------------------------------------------------------------
 #N Geom=AllCheck Guess=TCheck SCRF=Check GenChk RB3LYP/ChkBas Freq
 ------------------------------------------------------------------

 Structure from the checkpoint file:  "/home/chesagar/scratch/Gau-100866.chk"
 -------------------
 Title Card Required
 -------------------
 Charge =  0 Multiplicity = 1

                          Input orientation:
 ---------------------------------------------------------------------
 Center     Atomic      Atomic             Coordinates (Angstroms)
 Number     Number       Type             X           Y           Z
 ---------------------------------------------------------------------
      1         42           0        0.511149    1.426809   11.837928
      2         16           0        1.369530    3.583676   12.086289
      3         16           0       -1.644099    1.430670   12.804812
      4         16           0        0.036045    0.962919    9.567334
      5         16           0        2.248116   -0.031428   11.987563
      6         42           0       -1.811801    2.074313   10.572821
      7         16           0       -2.994988    1.689297    8.428074
      8          1           0       -2.149149    0.881509    7.747134
      9         16           0       -1.393381    4.379257   10.760222
     10         42           0        0.503963    3.261083    9.764602
     11         16           0        0.166911    3.418098    7.286202
     12          1           0        0.118414    2.105348    6.962043
     13         16           0        2.966365    2.700224    9.196336
     14         42           0        3.218387    2.099942   11.325476
     15         42           0       -1.959856    4.026990    8.432614
     16          6           0       -1.380710    5.949717    8.179920
     17          6           0       -3.823550    4.691246    8.961804
     18          8           0       -1.069913    7.046368    8.004640
     19          8           0       -4.876148    5.074684    9.226155
     20         16           0        4.369153    3.740760   12.602578
     21          1           0        5.638621    3.273871   12.624902
     22         16           0        5.192284    0.802673   11.308684
     23          1           0        6.139100    1.761129   11.166688
 ---------------------------------------------------------------------

 SCF Done:  E(RB3LYP) =  -4549.16674066     A.U. after    3 cycles

 Alpha  occ. eigenvalues --  -88.91766 -88.91644 -88.90778 -88.90694 -88.89833
 Alpha  occ. eigenvalues --  -88.88286 -88.87510 -88.87471 -88.86497 -88.86393
 Alpha  occ. eigenvalues --  -19.26750 -19.25848 -10.33761 -10.33078  -7.99275
 Alpha  occ. eigenvalues --   -7.99245  -7.98327  -7.98257  -7.97405  -7.96000
 Alpha  occ. eigenvalues --   -7.95329  -7.95192  -7.94186  -7.94067  -5.95298
 Alpha  occ. eigenvalues --   -5.95259  -5.95235  -5.95195  -5.95187  -5.95150
 Alpha  occ. eigenvalues --   -5.94596  -5.94536  -5.94212  -5.94129  -5.94082
 Alpha  occ. eigenvalues --   -5.94016  -5.93422  -5.93402  -5.93273  -5.91998
 Alpha  occ. eigenvalues --   -5.91965  -5.91900  -5.91395  -5.91314  -5.91231
 Alpha  occ. eigenvalues --   -5.91167  -5.91110  -5.91034  -5.90472  -5.90360
 Alpha  occ. eigenvalues --   -5.90066  -5.89962  -5.89880  -5.89742  -2.54734
 Alpha  occ. eigenvalues --   -2.54531  -2.54378  -2.54206  -2.51547  -1.58464
 Alpha  occ. eigenvalues --   -1.58028  -1.57818  -1.57603  -1.57018  -1.56579
 Alpha  occ. eigenvalues --   -1.56448  -1.56175  -1.55993  -1.55818  -1.55602
 Alpha  occ. eigenvalues --   -1.55210  -1.54323  -1.53877  -1.53480  -1.16896
 Alpha  occ. eigenvalues --   -1.15992  -0.76996  -0.75628  -0.74900  -0.74464
 Alpha  occ. eigenvalues --   -0.73481  -0.71798  -0.70998  -0.70588  -0.69983
 Alpha  occ. eigenvalues --   -0.69477  -0.59958  -0.58955  -0.49894  -0.49366
 Alpha  occ. eigenvalues --   -0.48899  -0.48241  -0.48127  -0.47382  -0.45289
 Alpha  occ. eigenvalues --   -0.45171  -0.43969  -0.42161  -0.41581  -0.41530
 Alpha  occ. eigenvalues --   -0.40823  -0.40636  -0.39567  -0.38994  -0.37716
 Alpha  occ. eigenvalues --   -0.36864  -0.36525  -0.36180  -0.35462  -0.35236
 Alpha  occ. eigenvalues --   -0.34373  -0.34005  -0.33735  -0.33415  -0.33319
 Alpha  occ. eigenvalues --   -0.32927  -0.32707  -0.31869  -0.31402  -0.30341
 Alpha  occ. eigenvalues --   -0.30070  -0.29033  -0.28475  -0.27730  -0.27555
 Alpha  occ. eigenvalues --   -0.26762  -0.26177  -0.24879  -0.24396  -0.23736
 Alpha  occ. eigenvalues --   -0.23370
 Alpha virt. eigenvalues --   -0.15763  -0.15056  -0.14102  -0.13701  -0.13127
 Alpha virt. eigenvalues --   -0.12518  -0.11604  -0.11456  -0.10670  -0.09957
 Alpha virt. eigenvalues --   -0.09403  -0.08632  -0.08344  -0.07483  -0.06548

 Mulliken charges:
               1
     1  Mo   0.086509
     2  S    0.116521
     3  S   -0.093700
     4  S    0.198072
     5  S   -0.047753
     6  Mo   0.018876
     7  S    0.004046
     8  H    0.097785
     9  S    0.208621
    10  Mo  -0.248108
    11  S    0.069621
    12  H    0.101425
    13  S   -0.049475
    14  Mo  -0.228576
    15  Mo  -0.333610
    16  C    0.226796
    17  C    0.225095
    18  O   -0.221136
    19  O   -0.212475
    20  S   -0.019611
    21  H    0.052013
    22  S   -0.011957
    23  H    0.061020
 Sum of Mulliken charges =  -0.00000

 Dipole moment (field-independent basis, Debye):
    X=             -3.8964    Y=              0.6367    Z=             -3.9217  Tot=              5.5648
 Quadrupole moment (field-independent basis, Debye-Ang):
   XX=           -271.4935   YY=           -272.5557   ZZ=           -347.7630
   XY=             -5.2742   XZ=            -37.3779   YZ=             -0.9333

  Exact polarizability:     603.498     -74.681     375.509     100.240     -65.101     381.494
 Approx polarizability:    1595.968    -175.163    1098.237     174.573    -237.340    1147.035

                      1                      2                      3
                      A                      A                      A
 Frequencies --     38.9185                45.5761                57.9472
 Red. masses --     15.9978                16.7822                17.3194
 Frc consts  --      0.0143                 0.0205                 0.0343
 IR Inten    --      1.0579                 0.6941                 0.0223

                      4                      5                      6
                      A                      A                      A
 Frequencies --     69.6168                72.5501                78.5751
 Red. masses --     18.2652                16.7681                18.5608
 Frc consts  --      0.0522                 0.0520                 0.0675
 IR Inten    --      0.0411                 0.0285                 0.2176

                      7                      8                      9
                      A                      A                      A
 Frequencies --     87.5236                98.1505               107.1345
 Red. masses --     18.9639                19.2615                21.4193
 Frc consts  --      0.0856                 0.1093                 0.1448
 IR Inten    --      0.0660                 0.0866                 0.5738

                     10                     11                     12
                      A                      A                      A
 Frequencies --    108.4289               117.1294               122.1448
 Red. masses --     26.9610                25.4771                29.5801
 Frc consts  --      0.1868                 0.2059                 0.2600
 IR Inten    --      2.2494                 0.5248                 1.3784

                     13                     14                     15
                      A                      A                      A
 Frequencies --    124.2489               143.3773               150.1621
 Red. masses --     20.9600                18.0405                20.8461
 Frc consts  --      0.1906                 0.2185                 0.2769
 IR Inten    --      0.8689                 1.3667                 0.2014

                     16                     17                     18
                      A                      A                      A
 Frequencies --    152.5652               156.3365               166.5138
 Red. masses --     29.8525                28.7633                24.0584
 Frc consts  --      0.4094                 0.4142                 0.3930
 IR Inten    --      0.7714                 2.0272                 0.9037

                     19                     20                     21
                      A                      A                      A
 Frequencies --    185.4198               193.5467               209.4874
 Red. masses --     29.6464                29.2458                26.3261
 Frc consts  --      0.6005                 0.6455                 0.6807
 IR Inten    --      0.2294                 3.4939                 1.6658

                     22                     23                     24
                      A                      A                      A
 Frequencies --    211.1968               224.5644               243.2032
 Red. masses --     16.8530                21.1842                29.7533
 Frc consts  --      0.4429                 0.6294                 1.0369
 IR Inten    --      0.6242                 6.8000                 2.7278

                     25                     26                     27
                      A                      A                      A
 Frequencies --    251.6056               261.1470               274.8781
 Red. masses --     26.5139                31.0103                31.4327
 Frc consts  --      0.9889                 1.2460                 1.3993
 IR Inten    --      7.7362                 1.4795                15.8906

                     28                     29                     30
                      A                      A                      A
 Frequencies --    282.9321               293.1551               310.8929
 Red. masses --     28.2481                29.3493                30.5032
 Frc consts  --      1.3323                 1.4861                 1.7371
 IR Inten    --      0.1864                 8.5342                 0.8387

                     31                     32                     33
                      A                      A                      A
 Frequencies --    319.0017               321.2448               339.7889
 Red. masses --     30.4287                30.0444                30.3259
 Frc consts  --      1.8244                 1.8268                 2.0629
 IR Inten    --     12.7013                 1.2442                 0.7547

                     34                     35                     36
                      A                      A                      A
 Frequencies --    342.0148               350.4109               358.6231
 Red. masses --     17.1926                36.9152                21.4905
 Frc consts  --      1.1849                 2.6706                 1.6284
 IR Inten    --     52.9847                10.6145                13.2549

                     37                     38                     39
                      A                      A                      A
 Frequencies --    375.8201               388.1825               406.1137
 Red. masses --     33.5982                16.2147                14.3729
 Frc consts  --      2.7959                 1.4396                 1.3967
 IR Inten    --      1.1988                31.1810                25.2181

                     40                     41                     42
                      A                      A                      A
 Frequencies --    412.7143               414.3527               415.6256
 Red. masses --      3.4042                 2.4390                 4.0820
 Frc consts  --      0.3416                 0.2467                 0.4155
 IR Inten    --     21.7233                 6.6361                27.4433

                     43                     44                     45
                      A                      A                      A
 Frequencies --    431.5805               436.3995               441.3102
 Red. masses --      3.1940                 1.7455                 7.2987
 Frc consts  --      0.3505                 0.1959                 0.8375
 IR Inten    --      2.5682                25.0926                11.5441

                     46                     47                     48
                      A                      A                      A
 Frequencies --    443.1379               452.1843               458.4130
 Red. masses --     20.0638                18.7104                17.9274
 Frc consts  --      2.3214                 2.2540                 2.2196
 IR Inten    --      3.9965                20.8033                28.8920

                     49                     50                     51
                      A                      A                      A
 Frequencies --    462.6846               504.4010               553.4084
 Red. masses --     12.0044                13.4128                 5.7556
 Frc consts  --      1.5141                 2.0106                 1.0386
 IR Inten    --     11.7513                 7.6478                11.5211

                     52                     53                     54
                      A                      A                      A
 Frequencies --    596.3818               636.7272               666.2320
 Red. masses --      1.1446                 1.1229                 1.0798
 Frc consts  --      0.2399                 0.2682                 0.2824
 IR Inten    --      7.5192                 2.5714                 1.1906

                     55                     56                     57
                      A                      A                      A
 Frequencies --    673.5238               732.5476               777.0045
 Red. masses --      1.1138                 1.0589                 1.0426
 Frc consts  --      0.2977                 0.3348                 0.3709
 IR Inten    --     38.8691                 2.2209                18.9129

                     58                     59                     60
                      A                      A                      A
 Frequencies --   2055.0509              2095.8491              2618.3653
 Red. masses --     13.4063                13.3700                 1.0384
 Frc consts  --     33.3583                34.6021                 4.1943
 IR Inten    --    749.7345              2114.0010                 8.4274

                     61                     62                     63
                      A                      A                      A
 Frequencies --   2627.2792              2627.7479              2639.1727
 Red. masses --      1.0380                 1.0387                 1.0381
 Frc consts  --      4.2216                 4.2257                 4.2600
 IR Inten    --     17.5014                 1.6000                20.8333

 - Thermochemistry -
 -------------------
 Temperature   298.150 Kelvin.  Pressure   1.00000 Atm.
 Atom     1 has atomic number 42 and mass  97.90550

 Molecular mass:   869.26935 amu.
 Principal axes and moments of inertia in atomic units:
                           1         2         3
     Eigenvalues --  9304.65345********************
           X            0.86003   0.50006  -0.10146
           Y           -0.30347   0.66114   0.68615
           Z            0.41019  -0.55932   0.72035
 This molecule is an asymmetric top.
 Rotational symmetry number  1.
 Warning -- assumption of classical behavior for rotation
           may cause significant error
 Rotational temperatures (Kelvin)      0.00931     0.00362     0.00318
 Rotational constants (GHZ):           0.19396     0.07552     0.06622
 Zero-point vibrational energy     192671.9 (Joules/Mol)
                                   46.04968 (Kcal/Mol)
 Warning -- explicit consideration of  52 degrees of freedom as
           vibrations may cause significant error
 Vibrational temperatures:     56.00    65.57    83.37   100.16   104.38
          (Kelvin)            113.05   125.93   141.22   154.14   156.00
                              168.52   175.74   178.77   206.29   216.05
                              219.51   224.93   239.58   266.78   278.47
                              301.41   303.87   323.10   349.92   362.00
                              375.73   395.49   407.08   421.78   447.31
                              458.97   462.20   488.88   492.08   504.16
                              515.98   540.72   558.51   584.31   593.80
                              596.16   597.99   620.95   627.88   634.95
                              637.58   650.59   659.55   665.70   725.72
                              796.23   858.06   916.11   958.56   969.05
                             1053.97  1117.94  2956.76  3015.46  3767.24
                             3780.07  3780.74  3797.18

 Zero-point correction=                           0.073385 (Hartree/Particle)
 Thermal correction to Energy=                    0.102361
 Thermal correction to Enthalpy=                  0.103305
 Thermal correction to Gibbs Free Energy=         0.013087
 Sum of electronic and zero-point Energies=          -4549.093356
 Sum of electronic and thermal Energies=             -4549.064380
 Sum of electronic and thermal Enthalpies=           -4549.063435
 Sum of electronic and thermal Free Energies=        -4549.153654

                     E (Thermal)             CV                S
                      KCal/Mol        Cal/Mol-Kelvin    Cal/Mol-Kelvin
 Total                   64.233             97.664            189.880
 Electronic               0.000              0.000              0.000
 Translational            0.889              2.981             46.164
 Rotational               0.889              2.981             37.047
 Vibrational             62.455             91.702            106.669
 Vibration     1          0.594              1.981              5.313
 Vibration     2          0.595              1.979              5.001
 Vibration     3          0.596              1.974              4.526
 Vibration     4          0.598              1.969              4.164
 Vibration     5          0.599              1.967              4.083
 Vibration     6          0.600              1.964              3.926
 Vibration     7          0.601              1.958              3.715
 Vibration     8          0.604              1.950              3.491
 Vibration     9          0.606              1.944              3.320
 Vibration    10          0.606              1.942              3.297
 Vibration    11          0.608              1.935              3.147
 Vibration    12          0.610              1.931              3.066
 Vibration    13          0.610              1.929              3.033
 Vibration    14          0.616              1.910              2.758
 Vibration    15          0.618              1.902              2.670
 Vibration    16          0.619              1.900              2.640
 Vibration    17          0.620              1.896              2.594
 Vibration    18          0.624              1.884              2.474
 Vibration    19          0.631              1.860              2.273
 Vibration    20          0.635              1.849              2.194
 Vibration    21          0.642              1.826              2.048
 Vibration    22          0.643              1.824              2.033
 Vibration    23          0.649              1.804              1.922
 Vibration    24          0.659              1.774              1.779
 Vibration    25          0.664              1.760              1.719
 Vibration    26          0.669              1.744              1.654
 Vibration    27          0.677              1.720              1.565
 Vibration    28          0.682              1.705              1.516
 Vibration    29          0.688              1.686              1.456
 Vibration    30          0.700              1.653              1.358
 Vibration    31          0.705              1.637              1.315
 Vibration    32          0.707              1.633              1.304
 Vibration    33          0.720              1.596              1.213
 Vibration    34          0.721              1.591              1.203
 Vibration    35          0.727              1.574              1.164
 Vibration    36          0.733              1.558              1.128
 Vibration    37          0.747              1.522              1.056
 Vibration    38          0.756              1.495              1.007
 Vibration    39          0.771              1.457              0.940
 Vibration    40          0.776              1.443              0.917
 Vibration    41          0.778              1.439              0.911
 Vibration    42          0.779              1.436              0.907
 Vibration    43          0.793              1.401              0.854
 Vibration    44          0.797              1.391              0.838
 Vibration    45          0.801              1.380              0.822
 Vibration    46          0.803              1.376              0.817
 Vibration    47          0.811              1.356              0.789
 Vibration    48          0.816              1.342              0.771
 Vibration    49          0.820              1.333              0.758
 Vibration    50          0.860              1.240              0.647
 Vibration    51          0.909              1.132              0.537
 Vibration    52          0.954              1.039              0.456

 Optimization completed.
    -- Stationary point found.
 Normal termination of Gaussian 16 at Fri Nov  4 08:42:08 2022.
