 Gaussian 16, Revision C.01,
 Gaussian 16:  ES64L-G16RevC.01  3-Jul-2019

 ---------------------------------------
 # opt freq b3lyp/gen nosymm pseudo=read
 ---------------------------------------

 -------------------
 Title Card Required
 -------------------
 Symbolic Z-matrix:
 Charge =  0 Multiplicity = 1

 SCF Done:  E(RB3LYP) =  -4435.77612171     A.U. after   30 cycles
 SCF Done:  E(RB3LYP) =  -4435.78018634     A.U. after   21 cycles
 SCF Done:  E(RB3LYP) =  -4435.78249167     A.U. after   22 cycles
 SCF Done:  E(RB3LYP) =  -4435.78296404     A.U. after   20 cycles
 SCF Done:  E(RB3LYP) =  -4435.78325486     A.U. after   18 cycles
 SCF Done:  E(RB3LYP) =  -4435.78357488     A.U. after   20 cycles
 SCF Done:  E(RB3LYP) =  -4435.78363608     A.U. after   19 cycles
 SCF Done:  E(RB3LYP) =  -4435.78367916     A.U. after   18 cycles
 SCF Done:  E(RB3LYP) =  -4435.78371757     A.U. after   19 cycles
 SCF Done:  E(RB3LYP) =  -4435.78373515     A.U. after   18 cycles
 SCF Done:  E(RB3LYP) =  -4435.78375858     A.U. after   18 cycles
 SCF Done:  E(RB3LYP) =  -4435.78376284     A.U. after   18 cycles
 SCF Done:  E(RB3LYP) =  -4435.78376514     A.U. after   17 cycles
 SCF Done:  E(RB3LYP) =  -4435.78376698     A.U. after   17 cycles
 SCF Done:  E(RB3LYP) =  -4435.78376799     A.U. after   17 cycles
 SCF Done:  E(RB3LYP) =  -4435.78376870     A.U. after   17 cycles
 SCF Done:  E(RB3LYP) =  -4435.78376904     A.U. after   17 cycles
 SCF Done:  E(RB3LYP) =  -4435.78376923     A.U. after   15 cycles
 SCF Done:  E(RB3LYP) =  -4435.78376928     A.U. after   14 cycles
 Optimization completed.
    -- Stationary point found.
 Normal termination of Gaussian 16 at Fri Nov  4 09:46:55 2022.

 ------------------------------------------------------------------
 #N Geom=AllCheck Guess=TCheck SCRF=Check GenChk RB3LYP/ChkBas Freq
 ------------------------------------------------------------------

 Structure from the checkpoint file:  "/home/chesagar/scratch/Gau-167501.chk"
 -------------------
 Title Card Required
 -------------------
 Charge =  0 Multiplicity = 1

                          Input orientation:
 ---------------------------------------------------------------------
 Center     Atomic      Atomic             Coordinates (Angstroms)
 Number     Number       Type             X           Y           Z
 ---------------------------------------------------------------------
      1         42           0        0.540994    1.567579   11.756835
      2         16           0        1.098864    3.833020   11.934580
      3         16           0       -1.692869    1.808892   12.634806
      4         16           0       -0.021685    0.891362    9.542038
      5         16           0        2.412085    0.293150   11.998605
      6         42           0       -1.933455    2.106132   10.312860
      7         16           0       -3.320358    1.055089    8.541094
      8          1           0       -2.342376    0.457908    7.812334
      9         16           0       -1.668834    4.489134   10.167552
     10         42           0        0.395680    3.221249    9.719182
     11         16           0       -0.494772    3.591304    7.305381
     12          1           0       -0.181362    2.452365    6.652599
     13         16           0        2.735376    2.833904    8.949112
     14         42           0        3.068881    2.488563   11.164047
     15         42           0       -2.900773    3.462055    8.384896
     16          6           0       -4.703372    3.788498    9.133956
     17          8           0       -5.765261    4.009223    9.549782
     18         16           0        4.065974    4.318204   12.317200
     19          1           0        5.380486    4.003715   12.303884
     20         16           0        5.194871    1.459749   11.069149
     21          1           0        5.986302    2.528157   10.812493
 ---------------------------------------------------------------------

 SCF Done:  E(RB3LYP) =  -4435.78376928     A.U. after    3 cycles

 Alpha  occ. eigenvalues --  -88.92095 -88.91312 -88.90908 -88.89998 -88.88527
 Alpha  occ. eigenvalues --  -88.88335 -88.88094 -88.87987 -88.87454 -88.87400
 Alpha  occ. eigenvalues --  -19.22520 -10.30012  -7.99774  -7.98942  -7.98521
 Alpha  occ. eigenvalues --   -7.97642  -7.96133  -7.96103  -7.95849  -7.95661
 Alpha  occ. eigenvalues --   -7.95148  -7.95083  -5.95772  -5.95728  -5.95673
 Alpha  occ. eigenvalues --   -5.94953  -5.94887  -5.94848  -5.94782  -5.94379
 Alpha  occ. eigenvalues --   -5.94284  -5.93711  -5.93628  -5.93454  -5.92444
 Alpha  occ. eigenvalues --   -5.92162  -5.92075  -5.92024  -5.91915  -5.91888
 Alpha  occ. eigenvalues --   -5.91840  -5.91818  -5.91695  -5.91688  -5.91655
 Alpha  occ. eigenvalues --   -5.91505  -5.91426  -5.91369  -5.91003  -5.90979
 Alpha  occ. eigenvalues --   -5.90873  -5.90760  -2.56123  -2.55747  -2.55622
 Alpha  occ. eigenvalues --   -2.54814  -2.50395  -1.59939  -1.59183  -1.59016
 Alpha  occ. eigenvalues --   -1.58683  -1.58242  -1.57821  -1.57685  -1.57303
 Alpha  occ. eigenvalues --   -1.56951  -1.56818  -1.56536  -1.55937  -1.53030
 Alpha  occ. eigenvalues --   -1.52922  -1.51870  -1.12485  -0.76651  -0.75617
 Alpha  occ. eigenvalues --   -0.74900  -0.74026  -0.73045  -0.72734  -0.71650
 Alpha  occ. eigenvalues --   -0.71090  -0.70730  -0.69769  -0.56432  -0.47126
 Alpha  occ. eigenvalues --   -0.45765  -0.45138  -0.45010  -0.44593  -0.44018
 Alpha  occ. eigenvalues --   -0.42808  -0.42108  -0.41659  -0.41099  -0.40546
 Alpha  occ. eigenvalues --   -0.40021  -0.39299  -0.38719  -0.37516  -0.37039
 Alpha  occ. eigenvalues --   -0.36690  -0.36211  -0.35315  -0.35123  -0.34638
 Alpha  occ. eigenvalues --   -0.33983  -0.33817  -0.33616  -0.32860  -0.32482
 Alpha  occ. eigenvalues --   -0.31522  -0.31177  -0.30304  -0.29979  -0.29455
 Alpha  occ. eigenvalues --   -0.29250  -0.28806  -0.28016  -0.27546  -0.25800
 Alpha  occ. eigenvalues --   -0.25589  -0.25334  -0.23017  -0.22537
 Alpha virt. eigenvalues --   -0.17653  -0.15097  -0.14416  -0.13872  -0.13166
 Alpha virt. eigenvalues --   -0.12965  -0.12670  -0.11802  -0.11244  -0.10740
 Alpha virt. eigenvalues --   -0.10441  -0.10001  -0.09271  -0.08291  -0.07656

 Mulliken charges:
               1
     1  Mo  -0.005851
     2  S    0.183229
     3  S   -0.062574
     4  S    0.216392
     5  S   -0.040557
     6  Mo  -0.012817
     7  S    0.021874
     8  H    0.088363
     9  S    0.139768
    10  Mo  -0.303194
    11  S   -0.048404
    12  H    0.096542
    13  S    0.006653
    14  Mo  -0.294407
    15  Mo  -0.024800
    16  C    0.184542
    17  O   -0.252025
    18  S   -0.016417
    19  H    0.058046
    20  S   -0.001279
    21  H    0.066915
 Sum of Mulliken charges =  -0.00000

 Dipole moment (field-independent basis, Debye):
    X=             -1.1014    Y=             -0.0611    Z=             -3.7171  Tot=              3.8773
 Quadrupole moment (field-independent basis, Debye-Ang):
   XX=           -267.4352   YY=           -259.4768   ZZ=           -329.8104
   XY=              3.6802   XZ=             -2.5971   YZ=             -9.4264

  Exact polarizability:     688.888     -36.119     311.523     104.979     -21.065     361.519
 Approx polarizability:    1924.870    -125.975     987.800     200.194    -179.936    1149.147

                      1                      2                      3
                      A                      A                      A
 Frequencies --     31.3066                42.5871                51.0340
 Red. masses --     19.7257                16.4151                15.1098
 Frc consts  --      0.0114                 0.0175                 0.0232
 IR Inten    --      2.8050                 0.7960                 0.3285

                      4                      5                      6
                      A                      A                      A
 Frequencies --     62.7256                81.3079                87.2982
 Red. masses --     17.2216                20.0637                20.5936
 Frc consts  --      0.0399                 0.0781                 0.0925
 IR Inten    --      0.6180                 0.4910                 2.1498

                      7                      8                      9
                      A                      A                      A
 Frequencies --     91.1296                98.7163               109.5872
 Red. masses --     17.1101                15.7259                31.9183
 Frc consts  --      0.0837                 0.0903                 0.2258
 IR Inten    --      0.6739                 0.3687                 1.2184

                     10                     11                     12
                      A                      A                      A
 Frequencies --    118.1010               122.3808               123.5714
 Red. masses --     30.3905                21.8526                18.8854
 Frc consts  --      0.2497                 0.1928                 0.1699
 IR Inten    --      0.4992                 3.6796                 1.9518

                     13                     14                     15
                      A                      A                      A
 Frequencies --    137.0482               153.9893               155.0649
 Red. masses --     27.6734                33.9237                22.8873
 Frc consts  --      0.3062                 0.4740                 0.3242
 IR Inten    --      0.3432                 2.8706                 0.0499

                     16                     17                     18
                      A                      A                      A
 Frequencies --    161.5191               179.8924               183.6032
 Red. masses --     25.5349                28.6388                17.4216
 Frc consts  --      0.3925                 0.5460                 0.3460
 IR Inten    --      3.3722                 1.5726                 5.5325

                     19                     20                     21
                      A                      A                      A
 Frequencies --    204.3452               209.2932               213.7206
 Red. masses --     27.0099                14.8973                39.2614
 Frc consts  --      0.6645                 0.3845                 1.0566
 IR Inten    --      2.3227                 1.6277                 0.9401

                     22                     23                     24
                      A                      A                      A
 Frequencies --    225.6871               240.2932               245.2677
 Red. masses --     27.4167                27.7224                30.0513
 Frc consts  --      0.8228                 0.9431                 1.0651
 IR Inten    --      2.9441                 1.9916                37.3725

                     25                     26                     27
                      A                      A                      A
 Frequencies --    255.0781               269.6990               275.9047
 Red. masses --     34.4848                29.3584                34.0787
 Frc consts  --      1.3220                 1.2582                 1.5284
 IR Inten    --      1.8436                20.1394                 0.8180

                     28                     29                     30
                      A                      A                      A
 Frequencies --    283.8373               299.1602               322.2254
 Red. masses --     34.9545                27.9849                33.7183
 Frc consts  --      1.6592                 1.4756                 2.0627
 IR Inten    --      9.6092                 4.1485                 3.7066

                     31                     32                     33
                      A                      A                      A
 Frequencies --    332.0870               335.1520               341.8136
 Red. masses --     34.0338                16.8422                29.9648
 Frc consts  --      2.2114                 1.1146                 2.0627
 IR Inten    --      5.3856                49.9161                 3.0561

                     34                     35                     36
                      A                      A                      A
 Frequencies --    347.4948               352.6735               392.1648
 Red. masses --     25.1400                11.6384                 4.8561
 Frc consts  --      1.7886                 0.8529                 0.4400
 IR Inten    --     31.5846                16.3955                 2.7010

                     37                     38                     39
                      A                      A                      A
 Frequencies --    396.9786               401.0342               413.5709
 Red. masses --      2.6083                 3.2591                 2.7648
 Frc consts  --      0.2422                 0.3088                 0.2786
 IR Inten    --     13.3004                30.5782                 1.2098

                     40                     41                     42
                      A                      A                      A
 Frequencies --    419.7702               428.3731               442.6472
 Red. masses --      2.2698                 7.8126                11.3079
 Frc consts  --      0.2357                 0.8447                 1.3054
 IR Inten    --     21.1036                 1.2860                46.6670

                     43                     44                     45
                      A                      A                      A
 Frequencies --    447.4514               456.5282               461.2607
 Red. masses --     13.4547                 5.9284                 2.1204
 Frc consts  --      1.5871                 0.7280                 0.2658
 IR Inten    --     31.9427                15.7557                 2.8039

                     46                     47                     48
                      A                      A                      A
 Frequencies --    496.8110               557.3679               597.4536
 Red. masses --      8.4052                 2.8744                 1.0870
 Frc consts  --      1.2223                 0.5261                 0.2286
 IR Inten    --      3.4566                 8.2809                 4.2343

                     49                     50                     51
                      A                      A                      A
 Frequencies --    638.8510               721.1975               753.3419
 Red. masses --      1.0714                 1.0627                 1.0689
 Frc consts  --      0.2576                 0.3257                 0.3574
 IR Inten    --     17.4693                 2.0132                 1.3557

                     52                     53                     54
                      A                      A                      A
 Frequencies --    766.5196              2015.7271              2575.5588
 Red. masses --      1.0425                13.3682                 1.0386
 Frc consts  --      0.3609                32.0027                 4.0591
 IR Inten    --     19.2849              2223.7322                11.4965

                     55                     56                     57
                      A                      A                      A
 Frequencies --   2634.1220              2650.5027              2667.7110
 Red. masses --      1.0381                 1.0380                 1.0383
 Frc consts  --      4.2438                 4.2962                 4.3538
 IR Inten    --      6.4061                15.7204                 0.8263

 - Thermochemistry -
 -------------------
 Temperature   298.150 Kelvin.  Pressure   1.00000 Atm.
 Atom     1 has atomic number 42 and mass  97.90550

 Molecular mass:   841.27443 amu.
 Principal axes and moments of inertia in atomic units:
                           1         2         3
     Eigenvalues --  7281.55933********************
           X            0.93227  -0.33853  -0.12754
           Y           -0.09887  -0.57757   0.81033
           Z            0.34798   0.74284   0.57192
 This molecule is an asymmetric top.
 Rotational symmetry number  1.
 Warning -- assumption of classical behavior for rotation
           may cause significant error
 Rotational temperatures (Kelvin)      0.01189     0.00356     0.00331
 Rotational constants (GHZ):           0.24785     0.07415     0.06899
 Zero-point vibrational energy     167952.9 (Joules/Mol)
                                   40.14172 (Kcal/Mol)
 Warning -- explicit consideration of  48 degrees of freedom as
           vibrations may cause significant error
 Vibrational temperatures:     45.04    61.27    73.43    90.25   116.98
          (Kelvin)            125.60   131.12   142.03   157.67   169.92
                              176.08   177.79   197.18   221.56   223.10
                              232.39   258.82   264.16   294.01   301.13
                              307.50   324.71   345.73   352.89   367.00
                              388.04   396.97   408.38   430.42   463.61
                              477.80   482.21   491.79   499.97   507.42
                              564.24   571.16   577.00   595.04   603.96
                              616.33   636.87   643.78   656.84   663.65
                              714.80   801.93   859.60   919.16  1037.64
                             1083.89  1102.85  2900.18  3705.65  3789.91
                             3813.48  3838.24

 Zero-point correction=                           0.063970 (Hartree/Particle)
 Thermal correction to Energy=                    0.091236
 Thermal correction to Enthalpy=                  0.092181
 Thermal correction to Gibbs Free Energy=         0.004942
 Sum of electronic and zero-point Energies=          -4435.719799
 Sum of electronic and thermal Energies=             -4435.692533
 Sum of electronic and thermal Enthalpies=           -4435.691589
 Sum of electronic and thermal Free Energies=        -4435.778827

                     E (Thermal)             CV                S
                      KCal/Mol        Cal/Mol-Kelvin    Cal/Mol-Kelvin
 Total                   57.252             90.512            183.609
 Electronic               0.000              0.000              0.000
 Translational            0.889              2.981             46.066
 Rotational               0.889              2.981             36.781
 Vibrational             55.474             84.551            100.761
 Vibration     1          0.594              1.983              5.745
 Vibration     2          0.595              1.980              5.135
 Vibration     3          0.595              1.977              4.777
 Vibration     4          0.597              1.972              4.370
 Vibration     5          0.600              1.962              3.859
 Vibration     6          0.601              1.958              3.720
 Vibration     7          0.602              1.955              3.636
 Vibration     8          0.604              1.950              3.480
 Vibration     9          0.606              1.942              3.276
 Vibration    10          0.608              1.934              3.131
 Vibration    11          0.610              1.930              3.062
 Vibration    12          0.610              1.929              3.044
 Vibration    13          0.614              1.916              2.845
 Vibration    14          0.620              1.898              2.622
 Vibration    15          0.620              1.897              2.609
 Vibration    16          0.622              1.890              2.532
 Vibration    17          0.629              1.867              2.330
 Vibration    18          0.631              1.862              2.291
 Vibration    19          0.640              1.834              2.094
 Vibration    20          0.642              1.827              2.050
 Vibration    21          0.644              1.820              2.012
 Vibration    22          0.650              1.802              1.913
 Vibration    23          0.657              1.779              1.801
 Vibration    24          0.660              1.771              1.764
 Vibration    25          0.665              1.754              1.695
 Vibration    26          0.674              1.729              1.598
 Vibration    27          0.678              1.718              1.559
 Vibration    28          0.682              1.704              1.510
 Vibration    29          0.692              1.675              1.422
 Vibration    30          0.707              1.631              1.299
 Vibration    31          0.714              1.611              1.250
 Vibration    32          0.716              1.605              1.235
 Vibration    33          0.721              1.592              1.204
 Vibration    34          0.725              1.580              1.178
 Vibration    35          0.729              1.570              1.154
 Vibration    36          0.760              1.487              0.992
 Vibration    37          0.763              1.477              0.974
 Vibration    38          0.767              1.468              0.959
 Vibration    39          0.777              1.441              0.914
 Vibration    40          0.782              1.427              0.893
 Vibration    41          0.790              1.408              0.864
 Vibration    42          0.802              1.377              0.818
 Vibration    43          0.807              1.367              0.804
 Vibration    44          0.815              1.346              0.776
 Vibration    45          0.819              1.336              0.762
 Vibration    46          0.852              1.257              0.666
 Vibration    47          0.913              1.124              0.529
 Vibration    48          0.955              1.037              0.454

 Optimization completed.
    -- Stationary point found.
 Normal termination of Gaussian 16 at Fri Nov  4 09:49:05 2022.
