 Gaussian 16, Revision C.01,
 Gaussian 16:  ES64L-G16RevC.01  3-Jul-2019

 ---------------------------------------
 # opt freq b3lyp/gen nosymm pseudo=read
 ---------------------------------------

 -------------------
 Title Card Required
 -------------------
 Symbolic Z-matrix:
 Charge =  0 Multiplicity = 1

 SCF Done:  E(RB3LYP) =  -4322.41686284     A.U. after   29 cycles
 SCF Done:  E(RB3LYP) =  -4322.41775509     A.U. after   20 cycles
 SCF Done:  E(RB3LYP) =  -4322.41821399     A.U. after   20 cycles
 SCF Done:  E(RB3LYP) =  -4322.41827582     A.U. after   19 cycles
 SCF Done:  E(RB3LYP) =  -4322.41843406     A.U. after   20 cycles
 SCF Done:  E(RB3LYP) =  -4322.41849480     A.U. after   19 cycles
 SCF Done:  E(RB3LYP) =  -4322.41850990     A.U. after   18 cycles
 SCF Done:  E(RB3LYP) =  -4322.41852258     A.U. after   18 cycles
 SCF Done:  E(RB3LYP) =  -4322.41852864     A.U. after   17 cycles
 SCF Done:  E(RB3LYP) =  -4322.41853334     A.U. after   17 cycles
 SCF Done:  E(RB3LYP) =  -4322.41853467     A.U. after   17 cycles
 SCF Done:  E(RB3LYP) =  -4322.41853529     A.U. after   16 cycles
 Optimization completed.
    -- Stationary point found.
 Normal termination of Gaussian 16 at Fri Nov 11 12:11:03 2022.

 ------------------------------------------------------------------
 #N Geom=AllCheck Guess=TCheck SCRF=Check GenChk RB3LYP/ChkBas Freq
 ------------------------------------------------------------------

 Structure from the checkpoint file:  "/home/chesagar/scratch/Gau-82868.chk"
 -------------------
 Title Card Required
 -------------------
 Charge =  0 Multiplicity = 1

                          Input orientation:
 ---------------------------------------------------------------------
 Center     Atomic      Atomic             Coordinates (Angstroms)
 Number     Number       Type             X           Y           Z
 ---------------------------------------------------------------------
      1         42           0        0.148765    1.612275   11.887965
      2         16           0        1.340961    3.607257   11.979092
      3         16           0       -1.753086    1.867175   13.289315
      4         16           0       -0.854386    1.281768    9.775870
      5         16           0        1.687555   -0.030090   11.641807
      6         42           0       -2.342511    2.569976   11.146389
      7         16           0       -3.887071    2.545246    9.187605
      8          1           0       -3.427356    1.599337    8.333775
      9         16           0       -1.688905    4.827671   11.269284
     10         42           0       -0.085354    3.550760    9.884704
     11         16           0       -0.176130    5.836189    8.607273
     12          1           0        0.205188    5.456347    7.366783
     13         16           0        2.011400    2.678848    8.689682
     14         42           0        2.712296    1.982550   10.698272
     15         42           0       -2.148916    4.335445    8.980242
     16         16           0        4.363188    3.434249   11.592422
     17          1           0        5.520213    2.835320   11.225816
     18         16           0        4.420474    0.444990   10.145540
     19          1           0        5.425415    1.278776    9.784190
 ---------------------------------------------------------------------

 SCF Done:  E(RB3LYP) =  -4322.41853529     A.U. after    1 cycles

 Alpha  occ. eigenvalues --  -88.91234 -88.91134 -88.90990 -88.89413 -88.89102
 Alpha  occ. eigenvalues --  -88.87816 -88.87326 -88.86778 -88.86049 -88.85910
 Alpha  occ. eigenvalues --   -7.98904  -7.98712  -7.98593  -7.97041  -7.96664
 Alpha  occ. eigenvalues --   -7.95533  -7.95067  -7.94596  -7.93741  -7.93580
 Alpha  occ. eigenvalues --   -5.95163  -5.94741  -5.94728  -5.94698  -5.94664
 Alpha  occ. eigenvalues --   -5.94620  -5.94594  -5.94572  -5.94487  -5.93318
 Alpha  occ. eigenvalues --   -5.92888  -5.92799  -5.92698  -5.92634  -5.92542
 Alpha  occ. eigenvalues --   -5.91529  -5.91490  -5.91445  -5.91089  -5.91036
 Alpha  occ. eigenvalues --   -5.90927  -5.90659  -5.90590  -5.90380  -5.90030
 Alpha  occ. eigenvalues --   -5.89876  -5.89619  -5.89476  -5.89435  -5.89251
 Alpha  occ. eigenvalues --   -2.54446  -2.54214  -2.54084  -2.53787  -2.52384
 Alpha  occ. eigenvalues --   -1.59159  -1.57883  -1.57711  -1.57492  -1.56859
 Alpha  occ. eigenvalues --   -1.56548  -1.56484  -1.55595  -1.55581  -1.55497
 Alpha  occ. eigenvalues --   -1.55267  -1.55089  -1.54695  -1.54258  -1.52554
 Alpha  occ. eigenvalues --   -0.76998  -0.75094  -0.74233  -0.73767  -0.72942
 Alpha  occ. eigenvalues --   -0.71205  -0.70626  -0.70118  -0.69464  -0.69114
 Alpha  occ. eigenvalues --   -0.47043  -0.45592  -0.43538  -0.41508  -0.41413
 Alpha  occ. eigenvalues --   -0.40797  -0.40486  -0.40396  -0.38932  -0.38598
 Alpha  occ. eigenvalues --   -0.37566  -0.36855  -0.35874  -0.35742  -0.35551
 Alpha  occ. eigenvalues --   -0.34912  -0.34484  -0.34042  -0.33688  -0.33457
 Alpha  occ. eigenvalues --   -0.32955  -0.32549  -0.32076  -0.31903  -0.31184
 Alpha  occ. eigenvalues --   -0.30146  -0.29937  -0.28775  -0.28256  -0.27626
 Alpha  occ. eigenvalues --   -0.26657  -0.26339  -0.25549  -0.24432  -0.23985
 Alpha  occ. eigenvalues --   -0.23444  -0.22549
 Alpha virt. eigenvalues --   -0.15916  -0.14814  -0.14392  -0.13359  -0.12755
 Alpha virt. eigenvalues --   -0.11939  -0.11793  -0.11249  -0.10930  -0.10480
 Alpha virt. eigenvalues --   -0.09794  -0.08944  -0.08060  -0.07921  -0.06801

 Mulliken charges:
               1
     1  Mo   0.070988
     2  S    0.118032
     3  S   -0.118004
     4  S    0.197171
     5  S   -0.045441
     6  Mo  -0.116239
     7  S   -0.087372
     8  H    0.113957
     9  S    0.152963
    10  Mo  -0.198429
    11  S   -0.047067
    12  H    0.101078
    13  S   -0.083028
    14  Mo  -0.218052
    15  Mo   0.092451
    16  S   -0.020595
    17  H    0.048000
    18  S   -0.019179
    19  H    0.058767
 Sum of Mulliken charges =  -0.00000

 Dipole moment (field-independent basis, Debye):
    X=             -5.9223    Y=              1.8286    Z=             -4.3383  Tot=              7.5656
 Quadrupole moment (field-independent basis, Debye-Ang):
   XX=           -240.0925   YY=           -244.5380   ZZ=           -331.8034
   XY=            -16.2046   XZ=            -56.5199   YZ=              1.8658

  Exact polarizability:     546.296     -66.192     353.224      21.214     -47.370     323.575
 Approx polarizability:    1636.150    -313.495    1133.933     132.456    -280.244    1138.595

                      1                      2                      3
                      A                      A                      A
 Frequencies --     41.2812                53.0990                72.0081
 Red. masses --     16.6048                18.0234                21.4571
 Frc consts  --      0.0167                 0.0299                 0.0656
 IR Inten    --      1.1664                 0.3523                 1.3718

                      4                      5                      6
                      A                      A                      A
 Frequencies --     81.5316                93.5254                97.1969
 Red. masses --     20.7146                20.6190                20.1911
 Frc consts  --      0.0811                 0.1063                 0.1124
 IR Inten    --      1.0260                 0.4228                 0.6854

                      7                      8                      9
                      A                      A                      A
 Frequencies --    107.3667               110.8482               120.1262
 Red. masses --     22.3431                17.2596                31.2873
 Frc consts  --      0.1518                 0.1250                 0.2660
 IR Inten    --      0.6770                 0.3397                 0.3476

                     10                     11                     12
                      A                      A                      A
 Frequencies --    128.2875               138.5935               148.0008
 Red. masses --     20.1516                26.3207                22.5627
 Frc consts  --      0.1954                 0.2979                 0.2912
 IR Inten    --      1.3061                 0.8100                 2.0539

                     13                     14                     15
                      A                      A                      A
 Frequencies --    151.0210               159.6538               164.9403
 Red. masses --     30.9315                26.2773                32.4196
 Frc consts  --      0.4156                 0.3946                 0.5196
 IR Inten    --      0.9099                 0.9952                 1.3507

                     16                     17                     18
                      A                      A                      A
 Frequencies --    184.3471               203.8462               210.8106
 Red. masses --     30.6887                40.6801                14.4603
 Frc consts  --      0.6145                 0.9960                 0.3786
 IR Inten    --      3.7862                 3.0136                 0.1217

                     19                     20                     21
                      A                      A                      A
 Frequencies --    226.1948               232.0141               240.4788
 Red. masses --     20.3959                28.8208                24.2140
 Frc consts  --      0.6148                 0.9141                 0.8250
 IR Inten    --     10.3940                13.2255                 0.4994

                     22                     23                     24
                      A                      A                      A
 Frequencies --    248.1938               253.6469               269.6520
 Red. masses --     34.6664                32.4818                32.6442
 Frc consts  --      1.2582                 1.2313                 1.3985
 IR Inten    --      0.9101                 2.5273                 5.1268

                     25                     26                     27
                      A                      A                      A
 Frequencies --    279.4898               287.4403               305.8823
 Red. masses --     33.9561                30.0639                29.4294
 Frc consts  --      1.5628                 1.4635                 1.6223
 IR Inten    --      1.6452                19.2500                 5.5176

                     28                     29                     30
                      A                      A                      A
 Frequencies --    321.1191               328.6527               337.4513
 Red. masses --     29.0157                33.2152                12.4796
 Frc consts  --      1.7629                 2.1138                 0.8373
 IR Inten    --     17.5512                 3.3052                27.3146

                     31                     32                     33
                      A                      A                      A
 Frequencies --    348.1538               353.0614               355.0683
 Red. masses --     38.3067                23.4439                21.6356
 Frc consts  --      2.7357                 1.7218                 1.6071
 IR Inten    --      0.0908                10.1070                14.1436

                     34                     35                     36
                      A                      A                      A
 Frequencies --    398.1269               402.5498               420.3034
 Red. masses --      1.5376                 3.7221                 3.2114
 Frc consts  --      0.1436                 0.3554                 0.3342
 IR Inten    --      6.5472                18.4993                17.1372

                     37                     38                     39
                      A                      A                      A
 Frequencies --    422.9283               429.8841               436.8983
 Red. masses --      3.4151                 4.1504                10.7737
 Frc consts  --      0.3599                 0.4519                 1.2116
 IR Inten    --      1.7139                30.8760                 8.2444

                     40                     41                     42
                      A                      A                      A
 Frequencies --    440.1048               456.8328               528.8604
 Red. masses --     17.2180                25.0889                 1.1001
 Frc consts  --      1.9649                 3.0849                 0.1813
 IR Inten    --     13.4192                34.8458                19.9799

                     43                     44                     45
                      A                      A                      A
 Frequencies --    597.4362               629.1645               656.6941
 Red. masses --      1.0578                 1.0647                 1.0671
 Frc consts  --      0.2224                 0.2483                 0.2711
 IR Inten    --      2.2847                14.2929                 5.1372

                     46                     47                     48
                      A                      A                      A
 Frequencies --    727.8932               779.8425              2607.7503
 Red. masses --      1.0585                 1.0424                 1.0383
 Frc consts  --      0.3304                 0.3735                 4.1602
 IR Inten    --      2.4275                17.4329                14.6950

                     49                     50                     51
                      A                      A                      A
 Frequencies --   2622.3581              2632.8460              2650.0756
 Red. masses --      1.0379                 1.0382                 1.0384
 Frc consts  --      4.2052                 4.2401                 4.2968
 IR Inten    --     23.2719                20.0337                 0.4513

 - Thermochemistry -
 -------------------
 Temperature   298.150 Kelvin.  Pressure   1.00000 Atm.
 Atom     1 has atomic number 42 and mass  97.90550

 Molecular mass:   813.27952 amu.
 Principal axes and moments of inertia in atomic units:
                           1         2         3
     Eigenvalues --  8374.77917********************
           X            0.92926  -0.35539   0.10086
           Y           -0.32585  -0.65988   0.67704
           Z            0.17405   0.66201   0.72900
 This molecule is an asymmetric top.
 Rotational symmetry number  1.
 Warning -- assumption of classical behavior for rotation
           may cause significant error
 Rotational temperatures (Kelvin)      0.01034     0.00481     0.00401
 Rotational constants (GHZ):           0.21550     0.10024     0.08360
 Zero-point vibrational energy     146503.9 (Joules/Mol)
                                   35.01526 (Kcal/Mol)
 Warning -- explicit consideration of  43 degrees of freedom as
           vibrations may cause significant error
 Vibrational temperatures:     59.39    76.40   103.60   117.31   134.56
          (Kelvin)            139.84   154.48   159.49   172.83   184.58
                              199.41   212.94   217.29   229.71   237.31
                              265.23   293.29   303.31   325.44   333.82
                              346.00   357.10   364.94   387.97   402.12
                              413.56   440.10   462.02   472.86   485.52
                              500.92   507.98   510.86   572.82   579.18
                              604.72   608.50   618.51   628.60   633.21
                              657.28   760.91   859.58   905.23   944.84
                             1047.28  1122.02  3751.97  3772.99  3788.08
                             3812.87

 Zero-point correction=                           0.055800 (Hartree/Particle)
 Thermal correction to Energy=                    0.080657
 Thermal correction to Enthalpy=                  0.081601
 Thermal correction to Gibbs Free Energy=         0.000250
 Sum of electronic and zero-point Energies=          -4322.362735
 Sum of electronic and thermal Energies=             -4322.337879
 Sum of electronic and thermal Enthalpies=           -4322.336934
 Sum of electronic and thermal Free Energies=        -4322.418285

                     E (Thermal)             CV                S
                      KCal/Mol        Cal/Mol-Kelvin    Cal/Mol-Kelvin
 Total                   50.613             82.654            171.216
 Electronic               0.000              0.000              0.000
 Translational            0.889              2.981             45.965
 Rotational               0.889              2.981             36.430
 Vibrational             48.835             76.692             88.821
 Vibration     1          0.594              1.981              5.197
 Vibration     2          0.596              1.976              4.698
 Vibration     3          0.598              1.967              4.098
 Vibration     4          0.600              1.962              3.854
 Vibration     5          0.603              1.954              3.585
 Vibration     6          0.603              1.951              3.510
 Vibration     7          0.606              1.943              3.316
 Vibration     8          0.607              1.940              3.254
 Vibration     9          0.609              1.932              3.098
 Vibration    10          0.611              1.925              2.972
 Vibration    11          0.614              1.915              2.823
 Vibration    12          0.617              1.905              2.698
 Vibration    13          0.618              1.902              2.659
 Vibration    14          0.622              1.892              2.554
 Vibration    15          0.623              1.886              2.492
 Vibration    16          0.631              1.861              2.284
 Vibration    17          0.640              1.834              2.098
 Vibration    18          0.643              1.824              2.037
 Vibration    19          0.650              1.801              1.909
 Vibration    20          0.653              1.792              1.863
 Vibration    21          0.658              1.778              1.799
 Vibration    22          0.662              1.766              1.743
 Vibration    23          0.665              1.757              1.705
 Vibration    24          0.674              1.729              1.598
 Vibration    25          0.680              1.712              1.537
 Vibration    26          0.685              1.697              1.489
 Vibration    27          0.696              1.663              1.385
 Vibration    28          0.707              1.633              1.304
 Vibration    29          0.712              1.618              1.267
 Vibration    30          0.718              1.601              1.224
 Vibration    31          0.726              1.579              1.175
 Vibration    32          0.729              1.569              1.152
 Vibration    33          0.731              1.565              1.144
 Vibration    34          0.764              1.474              0.970
 Vibration    35          0.768              1.465              0.953
 Vibration    36          0.783              1.426              0.891
 Vibration    37          0.785              1.420              0.882
 Vibration    38          0.791              1.405              0.859
 Vibration    39          0.797              1.390              0.836
 Vibration    40          0.800              1.383              0.826
 Vibration    41          0.815              1.346              0.775
 Vibration    42          0.884              1.186              0.590
 Vibration    43          0.955              1.037              0.454

                           ! Non-Optimized Parameters !
 Normal termination of Gaussian 16 at Fri Nov 11 12:12:53 2022.
