 Gaussian 16, Revision C.01,
 Gaussian 16:  ES64L-G16RevC.01  3-Jul-2019

 ---------------------------------------
 # opt freq b3lyp/gen nosymm pseudo=read
 ---------------------------------------

 -------------------
 Title Card Required
 -------------------
 Symbolic Z-matrix:
 Charge =  0 Multiplicity = 1

 SCF Done:  E(RB3LYP) =  -4721.81440934     A.U. after   31 cycles
 SCF Done:  E(RB3LYP) =  -4721.83080977     A.U. after   21 cycles
 SCF Done:  E(RB3LYP) =  -4721.83385635     A.U. after   23 cycles
 SCF Done:  E(RB3LYP) =  -4721.83774079     A.U. after   20 cycles
 SCF Done:  E(RB3LYP) =  -4721.83900220     A.U. after   20 cycles
 SCF Done:  E(RB3LYP) =  -4721.83988080     A.U. after   21 cycles
 SCF Done:  E(RB3LYP) =  -4721.84015294     A.U. after   20 cycles
 SCF Done:  E(RB3LYP) =  -4721.84042544     A.U. after   20 cycles
 SCF Done:  E(RB3LYP) =  -4721.84052143     A.U. after   19 cycles
 SCF Done:  E(RB3LYP) =  -4721.84059447     A.U. after   19 cycles
 SCF Done:  E(RB3LYP) =  -4721.84062656     A.U. after   18 cycles
 SCF Done:  E(RB3LYP) =  -4721.84063521     A.U. after   17 cycles
 SCF Done:  E(RB3LYP) =  -4721.84064243     A.U. after   17 cycles
 SCF Done:  E(RB3LYP) =  -4721.84064554     A.U. after   17 cycles
 SCF Done:  E(RB3LYP) =  -4721.84064616     A.U. after   15 cycles
 SCF Done:  E(RB3LYP) =  -4721.84064698     A.U. after   16 cycles
 SCF Done:  E(RB3LYP) =  -4721.84064707     A.U. after   14 cycles
 Optimization completed.
    -- Stationary point found.
 Normal termination of Gaussian 16 at Fri Nov 11 11:50:13 2022.

 ------------------------------------------------------------------
 #N Geom=AllCheck Guess=TCheck SCRF=Check GenChk RB3LYP/ChkBas Freq
 ------------------------------------------------------------------

 Structure from the checkpoint file:  "/home/chesagar/scratch/Gau-72595.chk"
 -------------------
 Title Card Required
 -------------------
 Charge =  0 Multiplicity = 1

                          Input orientation:
 ---------------------------------------------------------------------
 Center     Atomic      Atomic             Coordinates (Angstroms)
 Number     Number       Type             X           Y           Z
 ---------------------------------------------------------------------
      1         42           0        0.145350    1.596606   11.857776
      2         16           0        1.317474    3.599269   11.974877
      3         16           0       -1.735175    1.869600   13.288527
      4         16           0       -0.868447    1.279620    9.755113
      5         16           0        1.691731   -0.044178   11.604916
      6         42           0       -2.320451    2.593295   11.155550
      7         16           0       -3.915117    2.537902    9.256879
      8          1           0       -3.562179    1.500507    8.462115
      9         16           0       -1.730741    4.849181   11.212202
     10         42           0       -0.089986    3.557311    9.866929
     11         16           0       -0.150363    5.845712    8.635142
     12          1           0        0.380145    5.535049    7.430456
     13         16           0        2.018524    2.690058    8.674785
     14         42           0        2.703063    1.983563   10.685551
     15         42           0       -2.111473    4.281768    8.857023
     16         16           0        4.342335    3.434105   11.607828
     17          1           0        5.504292    2.841302   11.246949
     18         16           0        4.426508    0.459808   10.132961
     19          1           0        5.426252    1.303610    9.780448
     20         16           0       -2.421294    4.050554    6.303168
     21          1           0       -2.361874    2.725317    6.056500
     22          1           0       -1.200517    4.290651    5.778584
 ---------------------------------------------------------------------

 SCF Done:  E(RB3LYP) =  -4721.84064707     A.U. after    1 cycles

 Alpha  occ. eigenvalues --  -88.95890 -88.90744 -88.90518 -88.89683 -88.88949
 Alpha  occ. eigenvalues --  -88.88505 -88.87202 -88.86675 -88.86257 -88.85603
 Alpha  occ. eigenvalues --  -88.85444  -8.03565  -7.98360  -7.98087  -7.97262
 Alpha  occ. eigenvalues --   -7.96515  -7.96061  -7.94924  -7.94410  -7.94073
 Alpha  occ. eigenvalues --   -7.93292  -7.93111  -5.99888  -5.99611  -5.99080
 Alpha  occ. eigenvalues --   -5.94638  -5.94205  -5.94140  -5.94102  -5.94043
 Alpha  occ. eigenvalues --   -5.93996  -5.93292  -5.93223  -5.93155  -5.92814
 Alpha  occ. eigenvalues --   -5.92348  -5.92281  -5.92096  -5.92033  -5.91938
 Alpha  occ. eigenvalues --   -5.90911  -5.90886  -5.90837  -5.90436  -5.90384
 Alpha  occ. eigenvalues --   -5.90263  -5.90136  -5.90069  -5.89858  -5.89584
 Alpha  occ. eigenvalues --   -5.89410  -5.89169  -5.89008  -5.88985  -5.88779
 Alpha  occ. eigenvalues --   -2.53888  -2.53709  -2.53557  -2.52990  -2.51288
 Alpha  occ. eigenvalues --   -1.58295  -1.57356  -1.57066  -1.56995  -1.56296
 Alpha  occ. eigenvalues --   -1.55981  -1.55926  -1.55096  -1.54941  -1.54823
 Alpha  occ. eigenvalues --   -1.54679  -1.54342  -1.53736  -1.52988  -1.51555
 Alpha  occ. eigenvalues --   -0.82994  -0.76357  -0.74427  -0.73590  -0.72722
 Alpha  occ. eigenvalues --   -0.72245  -0.70656  -0.70033  -0.69642  -0.68906
 Alpha  occ. eigenvalues --   -0.68546  -0.52605  -0.46705  -0.46259  -0.45068
 Alpha  occ. eigenvalues --   -0.43021  -0.40847  -0.40805  -0.40045  -0.39825
 Alpha  occ. eigenvalues --   -0.39672  -0.38183  -0.38038  -0.37176  -0.36848
 Alpha  occ. eigenvalues --   -0.35543  -0.35165  -0.35045  -0.34712  -0.34212
 Alpha  occ. eigenvalues --   -0.33683  -0.33255  -0.33031  -0.32639  -0.32057
 Alpha  occ. eigenvalues --   -0.31931  -0.31488  -0.31240  -0.30429  -0.29456
 Alpha  occ. eigenvalues --   -0.29197  -0.28112  -0.27620  -0.27069  -0.26085
 Alpha  occ. eigenvalues --   -0.25760  -0.24918  -0.23821  -0.23357  -0.22938
 Alpha  occ. eigenvalues --   -0.21998
 Alpha virt. eigenvalues --   -0.15182  -0.14221  -0.13311  -0.12659  -0.11831
 Alpha virt. eigenvalues --   -0.11343  -0.11075  -0.10455  -0.10038  -0.09348
 Alpha virt. eigenvalues --   -0.08354  -0.07574  -0.07440  -0.06829  -0.06310

 Mulliken charges:
               1
     1  Mo   0.070846
     2  S    0.120954
     3  S   -0.121899
     4  S    0.182838
     5  S   -0.051377
     6  Mo  -0.091895
     7  S   -0.072194
     8  H    0.096177
     9  S    0.125309
    10  Mo  -0.217564
    11  S   -0.016890
    12  H    0.074140
    13  S   -0.106344
    14  Mo  -0.213826
    15  Mo  -0.093812
    16  S   -0.023435
    17  H    0.046478
    18  S   -0.023841
    19  H    0.057140
    20  S   -0.005672
    21  H    0.134541
    22  H    0.130327
 Sum of Mulliken charges =  -0.00000

 Dipole moment (field-independent basis, Debye):
    X=             -6.0695    Y=              1.3615    Z=             -7.3425  Tot=              9.6231
 Quadrupole moment (field-independent basis, Debye-Ang):
   XX=           -259.0536   YY=           -263.9591   ZZ=           -393.4581
   XY=            -12.5579   XZ=            -55.2414   YZ=            -10.9154

  Exact polarizability:     560.743     -67.652     362.690      41.196     -55.742     379.688
 Approx polarizability:    1639.819    -294.523    1130.120     143.128    -269.036    1205.059

                      1                      2                      3
                      A                      A                      A
 Frequencies --     33.5904                42.0735                50.4304
 Red. masses --     10.8041                13.1252                16.3343
 Frc consts  --      0.0072                 0.0137                 0.0245
 IR Inten    --      3.6625                 0.2588                 0.5208

                      4                      5                      6
                      A                      A                      A
 Frequencies --     73.8367                81.6120                92.0340
 Red. masses --     10.3823                16.6776                 7.4239
 Frc consts  --      0.0333                 0.0654                 0.0370
 IR Inten    --      0.2866                 1.4961                 2.3005

                      7                      8                      9
                      A                      A                      A
 Frequencies --     98.8830               105.4254               108.8914
 Red. masses --      9.9875                 6.6416                21.3255
 Frc consts  --      0.0575                 0.0435                 0.1490
 IR Inten    --      0.9958                 2.1980                 0.7774

                     10                     11                     12
                      A                      A                      A
 Frequencies --    117.9100               122.0983               127.1235
 Red. masses --      5.9946                 5.0584                 2.5998
 Frc consts  --      0.0491                 0.0444                 0.0248
 IR Inten    --      0.9490                 2.0767                 5.6164

                     13                     14                     15
                      A                      A                      A
 Frequencies --    131.5146               140.0944               151.1244
 Red. masses --     16.4924                11.2673                30.8115
 Frc consts  --      0.1681                 0.1303                 0.4146
 IR Inten    --      0.4518                 1.6126                 0.4680

                     16                     17                     18
                      A                      A                      A
 Frequencies --    152.9270               163.6130               168.3516
 Red. masses --     18.0529                22.7740                33.2443
 Frc consts  --      0.2488                 0.3592                 0.5551
 IR Inten    --      2.1379                 0.8993                 1.7942

                     19                     20                     21
                      A                      A                      A
 Frequencies --    187.2737               191.9202               205.4171
 Red. masses --     29.8912                26.5548                32.0756
 Frc consts  --      0.6177                 0.5763                 0.7974
 IR Inten    --      3.2767                 2.7077                 1.7939

                     22                     23                     24
                      A                      A                      A
 Frequencies --    210.7069               226.3383               235.9861
 Red. masses --     14.4435                18.4844                24.4498
 Frc consts  --      0.3778                 0.5579                 0.8022
 IR Inten    --      0.1122                 3.0121                 1.7503

                     25                     26                     27
                      A                      A                      A
 Frequencies --    239.5805               248.9010               251.1266
 Red. masses --     30.9947                33.2687                30.0982
 Frc consts  --      1.0482                 1.2143                 1.1183
 IR Inten    --     12.7332                 0.1566                 4.7714

                     28                     29                     30
                      A                      A                      A
 Frequencies --    267.0529               275.4235               285.9905
 Red. masses --     31.5449                28.2883                31.0239
 Frc consts  --      1.3255                 1.2643                 1.4950
 IR Inten    --      5.3108                 0.8624                20.3614

                     31                     32                     33
                      A                      A                      A
 Frequencies --    297.8087               318.0052               321.6417
 Red. masses --     25.7834                31.4588                34.4805
 Frc consts  --      1.3473                 1.8744                 2.1017
 IR Inten    --      5.9416                11.3827                 3.8070

                     34                     35                     36
                      A                      A                      A
 Frequencies --    336.0336               345.4591               349.7764
 Red. masses --     13.2066                32.4254                31.8147
 Frc consts  --      0.8786                 2.2800                 2.2933
 IR Inten    --     29.9071                 3.4196                 1.2821

                     37                     38                     39
                      A                      A                      A
 Frequencies --    353.1937               399.3954               402.9359
 Red. masses --     17.3473                 1.5750                 3.4265
 Frc consts  --      1.2750                 0.1480                 0.3278
 IR Inten    --     20.0826                 6.2347                19.9606

                     40                     41                     42
                      A                      A                      A
 Frequencies --    419.1207               423.0496               428.6460
 Red. masses --      4.8754                 2.2120                 3.3291
 Frc consts  --      0.5046                 0.2332                 0.3604
 IR Inten    --     10.7137                 0.6995                39.9277

                     43                     44                     45
                      A                      A                      A
 Frequencies --    434.8782               437.9402               447.0383
 Red. masses --      4.7820                 6.1258                 1.7196
 Frc consts  --      0.5328                 0.6922                 0.2025
 IR Inten    --      6.7208                15.3654                 1.0610

                     46                     47                     48
                      A                      A                      A
 Frequencies --    456.1373               539.5181               557.4076
 Red. masses --     22.8310                 1.0704                 1.0842
 Frc consts  --      2.7988                 0.1836                 0.1985
 IR Inten    --     36.7678                 6.2812                 8.5612

                     49                     50                     51
                      A                      A                      A
 Frequencies --    604.6349               635.9993               676.4880
 Red. masses --      1.0710                 1.0616                 1.0619
 Frc consts  --      0.2307                 0.2530                 0.2863
 IR Inten    --     12.7056                 3.4626                11.2571

                     52                     53                     54
                      A                      A                      A
 Frequencies --    728.7804               779.9593              1221.0501
 Red. masses --      1.0587                 1.0423                 1.0391
 Frc consts  --      0.3313                 0.3736                 0.9128
 IR Inten    --      2.4016                16.9224                10.6676

                     55                     56                     57
                      A                      A                      A
 Frequencies --   2610.0815              2622.1688              2632.5250
 Red. masses --      1.0386                 1.0379                 1.0382
 Frc consts  --      4.1687                 4.2046                 4.2390
 IR Inten    --     22.4860                24.0413                22.1872

                     58                     59                     60
                      A                      A                      A
 Frequencies --   2639.4185              2666.1599              2679.9998
 Red. masses --      1.0386                 1.0354                 1.0402
 Frc consts  --      4.2629                 4.3364                 4.4019
 IR Inten    --     14.7652                12.4146                 0.4809

 - Thermochemistry -
 -------------------
 Temperature   298.150 Kelvin.  Pressure   1.00000 Atm.
 Atom     1 has atomic number 42 and mass  97.90550

 Molecular mass:   847.26724 amu.
 Principal axes and moments of inertia in atomic units:
                           1         2         3
     Eigenvalues --  9856.44348********************
           X            0.88629  -0.44908   0.11319
           Y           -0.34572  -0.47891   0.80692
           Z            0.30817   0.75430   0.57971
 This molecule is an asymmetric top.
 Rotational symmetry number  1.
 Warning -- assumption of classical behavior for rotation
           may cause significant error
 Rotational temperatures (Kelvin)      0.00879     0.00433     0.00361
 Rotational constants (GHZ):           0.18310     0.09032     0.07514
 Zero-point vibrational energy     194707.2 (Joules/Mol)
                                   46.53614 (Kcal/Mol)
 Warning -- explicit consideration of  49 degrees of freedom as
           vibrations may cause significant error
 Vibrational temperatures:     48.33    60.53    72.56   106.23   117.42
          (Kelvin)            132.42   142.27   151.68   156.67   169.65
                              175.67   182.90   189.22   201.56   217.43
                              220.03   235.40   242.22   269.45   276.13
                              295.55   303.16   325.65   339.53   344.70
                              358.11   361.32   384.23   396.27   411.48
                              428.48   457.54   462.77   483.48   497.04
                              503.25   508.17   574.64   579.73   603.02
                              608.67   616.73   625.69   630.10   643.19
                              656.28   776.25   801.99   869.93   915.06
                              973.32  1048.55  1122.19  1756.82  3755.33
                             3772.72  3787.62  3797.53  3836.01  3855.92

 Zero-point correction=                           0.074160 (Hartree/Particle)
 Thermal correction to Energy=                    0.102300
 Thermal correction to Enthalpy=                  0.103244
 Thermal correction to Gibbs Free Energy=         0.014428
 Sum of electronic and zero-point Energies=          -4721.766487
 Sum of electronic and thermal Energies=             -4721.738347
 Sum of electronic and thermal Enthalpies=           -4721.737403
 Sum of electronic and thermal Free Energies=        -4721.826219

                     E (Thermal)             CV                S
                      KCal/Mol        Cal/Mol-Kelvin    Cal/Mol-Kelvin
 Total                   64.194             92.993            186.929
 Electronic               0.000              0.000              0.000
 Translational            0.889              2.981             46.088
 Rotational               0.889              2.981             36.801
 Vibrational             62.417             87.031            104.040
 Vibration     1          0.594              1.983              5.605
 Vibration     2          0.595              1.980              5.159
 Vibration     3          0.595              1.977              4.800
 Vibration     4          0.599              1.966              4.048
 Vibration     5          0.600              1.962              3.852
 Vibration     6          0.602              1.955              3.616
 Vibration     7          0.604              1.950              3.476
 Vibration     8          0.605              1.945              3.351
 Vibration     9          0.606              1.942              3.289
 Vibration    10          0.608              1.934              3.134
 Vibration    11          0.610              1.931              3.067
 Vibration    12          0.611              1.926              2.989
 Vibration    13          0.612              1.922              2.924
 Vibration    14          0.615              1.913              2.803
 Vibration    15          0.619              1.901              2.658
 Vibration    16          0.619              1.899              2.635
 Vibration    17          0.623              1.887              2.508
 Vibration    18          0.625              1.881              2.454
 Vibration    19          0.632              1.857              2.255
 Vibration    20          0.634              1.851              2.209
 Vibration    21          0.640              1.832              2.084
 Vibration    22          0.643              1.824              2.038
 Vibration    23          0.650              1.801              1.908
 Vibration    24          0.655              1.786              1.833
 Vibration    25          0.657              1.780              1.806
 Vibration    26          0.662              1.765              1.738
 Vibration    27          0.663              1.761              1.723
 Vibration    28          0.672              1.734              1.615
 Vibration    29          0.677              1.719              1.562
 Vibration    30          0.684              1.700              1.498
 Vibration    31          0.691              1.678              1.429
 Vibration    32          0.704              1.639              1.320
 Vibration    33          0.707              1.632              1.302
 Vibration    34          0.717              1.604              1.231
 Vibration    35          0.724              1.585              1.187
 Vibration    36          0.727              1.576              1.167
 Vibration    37          0.729              1.569              1.152
 Vibration    38          0.765              1.471              0.965
 Vibration    39          0.768              1.464              0.952
 Vibration    40          0.782              1.429              0.895
 Vibration    41          0.785              1.420              0.882
 Vibration    42          0.790              1.408              0.863
 Vibration    43          0.795              1.394              0.843
 Vibration    44          0.798              1.387              0.833
 Vibration    45          0.806              1.367              0.805
 Vibration    46          0.814              1.347              0.777
 Vibration    47          0.895              1.163              0.566
 Vibration    48          0.913              1.124              0.529
 Vibration    49          0.963              1.022              0.442

                           ! Non-Optimized Parameters !
 Normal termination of Gaussian 16 at Fri Nov 11 11:52:29 2022.
