 Gaussian 16, Revision C.01,
 Gaussian 16:  ES64L-G16RevC.01  3-Jul-2019

 -----------------------------------------------------------
 # opt=(calcfc,ts,noeigen) freq b3lyp/gen nosymm pseudo=read
 -----------------------------------------------------------

 -------------------
 Title Card Required
 -------------------
 Symbolic Z-matrix:
 Charge =  0 Multiplicity = 1

 SCF Done:  E(RB3LYP) =  -4721.72658320     A.U. after   39 cycles
 SCF Done:  E(RB3LYP) =  -4721.74638220     A.U. after   31 cycles
 SCF Done:  E(RB3LYP) =  -4721.75968062     A.U. after   26 cycles
 SCF Done:  E(RB3LYP) =  -4721.76526519     A.U. after   25 cycles
 SCF Done:  E(RB3LYP) =  -4721.76505302     A.U. after   24 cycles
 SCF Done:  E(RB3LYP) =  -4721.76724948     A.U. after   26 cycles
 SCF Done:  E(RB3LYP) =  -4721.77496205     A.U. after   26 cycles
 SCF Done:  E(RB3LYP) =  -4721.78086101     A.U. after   25 cycles
 SCF Done:  E(RB3LYP) =  -4721.78252707     A.U. after   25 cycles
 SCF Done:  E(RB3LYP) =  -4721.78245545     A.U. after   25 cycles
 SCF Done:  E(RB3LYP) =  -4721.79472270     A.U. after   18 cycles
 SCF Done:  E(RB3LYP) =  -4721.79429153     A.U. after   21 cycles
 SCF Done:  E(RB3LYP) =  -4721.79469756     A.U. after   21 cycles
 SCF Done:  E(RB3LYP) =  -4721.79472653     A.U. after   19 cycles
 SCF Done:  E(RB3LYP) =  -4721.79473122     A.U. after   17 cycles
 SCF Done:  E(RB3LYP) =  -4721.79473191     A.U. after   16 cycles
 SCF Done:  E(RB3LYP) =  -4721.79473216     A.U. after   15 cycles
 SCF Done:  E(RB3LYP) =  -4721.79473237     A.U. after   15 cycles
 SCF Done:  E(RB3LYP) =  -4721.79473245     A.U. after   14 cycles
 Optimization completed.
    -- Stationary point found.
 Normal termination of Gaussian 16 at Fri Nov  4 09:17:43 2022.

 ------------------------------------------------------------------
 #N Geom=AllCheck Guess=TCheck SCRF=Check GenChk RB3LYP/ChkBas Freq
 ------------------------------------------------------------------

 Structure from the checkpoint file:  "/home/chesagar/scratch/Gau-227305.chk"
 -------------------
 Title Card Required
 -------------------
 Charge =  0 Multiplicity = 1

                          Input orientation:
 ---------------------------------------------------------------------
 Center     Atomic      Atomic             Coordinates (Angstroms)
 Number     Number       Type             X           Y           Z
 ---------------------------------------------------------------------
      1         42           0        0.165961    1.514646   11.711731
      2         16           0        1.255543    3.537847   12.008532
      3         16           0       -1.749500    1.681402   13.108032
      4         16           0       -0.810746    1.349323    9.568331
      5         16           0        1.738735   -0.079086   11.372984
      6         42           0       -2.296913    2.538353   11.025381
      7         16           0       -3.825517    2.840939    9.140433
      8          1           0       -3.645468    2.047306    7.643245
      9         16           0       -1.784668    4.819510   11.230811
     10         42           0       -0.087642    3.624572    9.852940
     11         16           0       -0.047316    5.940521    8.720396
     12          1           0        0.545903    5.680208    7.537392
     13         16           0        2.070806    2.898797    8.682237
     14         42           0        2.723372    2.033892   10.643740
     15         42           0       -2.059720    4.384330    8.755600
     16         16           0        4.296585    3.427756   11.743953
     17          1           0        5.483776    2.885022   11.387048
     18         16           0        4.490082    0.606468   10.006146
     19          1           0        5.473223    1.501191    9.744197
     20         16           0       -2.266874    3.746701    6.415629
     21          1           0       -3.206727    2.376427    6.842408
     22          1           0       -1.134838    3.024486    6.278112
 ---------------------------------------------------------------------

 SCF Done:  E(RB3LYP) =  -4721.79473245     A.U. after    1 cycles

 Alpha  occ. eigenvalues --  -88.91854 -88.91740 -88.90527 -88.90362 -88.89703
 Alpha  occ. eigenvalues --  -88.89085 -88.88749 -88.88061 -88.87452 -88.86884
 Alpha  occ. eigenvalues --  -88.86579  -7.99429  -7.99411  -7.98159  -7.97925
 Alpha  occ. eigenvalues --   -7.97251  -7.96692  -7.96484  -7.95795  -7.95266
 Alpha  occ. eigenvalues --   -7.94578  -7.94248  -5.95637  -5.95447  -5.95424
 Alpha  occ. eigenvalues --   -5.95366  -5.95320  -5.95065  -5.94398  -5.94043
 Alpha  occ. eigenvalues --   -5.93991  -5.93919  -5.93892  -5.93778  -5.93280
 Alpha  occ. eigenvalues --   -5.93232  -5.93124  -5.92962  -5.92544  -5.92468
 Alpha  occ. eigenvalues --   -5.92459  -5.92443  -5.92399  -5.91809  -5.91769
 Alpha  occ. eigenvalues --   -5.91658  -5.91328  -5.91259  -5.91053  -5.90861
 Alpha  occ. eigenvalues --   -5.90541  -5.90452  -5.90281  -5.90147  -5.89919
 Alpha  occ. eigenvalues --   -2.55692  -2.54982  -2.54808  -2.54453  -2.52802
 Alpha  occ. eigenvalues --   -1.59509  -1.58852  -1.58643  -1.58253  -1.58071
 Alpha  occ. eigenvalues --   -1.57383  -1.57321  -1.56464  -1.56308  -1.56286
 Alpha  occ. eigenvalues --   -1.56045  -1.55762  -1.55421  -1.54508  -1.52879
 Alpha  occ. eigenvalues --   -0.77871  -0.75571  -0.74325  -0.73780  -0.73488
 Alpha  occ. eigenvalues --   -0.72974  -0.71809  -0.71404  -0.70827  -0.70185
 Alpha  occ. eigenvalues --   -0.69800  -0.51389  -0.45780  -0.45039  -0.44163
 Alpha  occ. eigenvalues --   -0.42063  -0.41880  -0.41336  -0.40919  -0.40501
 Alpha  occ. eigenvalues --   -0.39636  -0.38957  -0.38174  -0.38072  -0.36920
 Alpha  occ. eigenvalues --   -0.36583  -0.36159  -0.35834  -0.35121  -0.34662
 Alpha  occ. eigenvalues --   -0.34309  -0.33894  -0.33652  -0.33477  -0.33029
 Alpha  occ. eigenvalues --   -0.32729  -0.32461  -0.31843  -0.31144  -0.30368
 Alpha  occ. eigenvalues --   -0.29855  -0.29186  -0.28425  -0.28237  -0.27213
 Alpha  occ. eigenvalues --   -0.27018  -0.25837  -0.25238  -0.24604  -0.24099
 Alpha  occ. eigenvalues --   -0.23613
 Alpha virt. eigenvalues --   -0.16769  -0.15637  -0.14812  -0.14748  -0.13294
 Alpha virt. eigenvalues --   -0.12895  -0.12305  -0.11976  -0.11555  -0.10753
 Alpha virt. eigenvalues --   -0.10158  -0.09539  -0.08778  -0.07921  -0.07204

 Mulliken charges:
               1
     1  Mo   0.054422
     2  S    0.138578
     3  S   -0.091120
     4  S    0.230752
     5  S   -0.037166
     6  Mo  -0.106236
     7  S   -0.029907
     8  H    0.014879
     9  S    0.143255
    10  Mo  -0.317601
    11  S   -0.002094
    12  H    0.103670
    13  S   -0.082887
    14  Mo  -0.213665
    15  Mo   0.001278
    16  S   -0.011591
    17  H    0.049786
    18  S   -0.009931
    19  H    0.062411
    20  S   -0.057258
    21  H    0.022673
    22  H    0.137752
 Sum of Mulliken charges =  -0.00000

 Dipole moment (field-independent basis, Debye):
    X=             -3.5423    Y=              0.6014    Z=             -3.1533  Tot=              4.7805
 Quadrupole moment (field-independent basis, Debye-Ang):
   XX=           -257.3915   YY=           -266.5910   ZZ=           -323.7642
   XY=             -6.8101   XZ=            -37.8405   YZ=             -6.2775

  Exact polarizability:     579.405     -62.597     362.173      61.665     -53.324     404.363
 Approx polarizability:    1752.367    -236.048    1167.004     176.336    -238.394    1295.723

 ******    1 imaginary frequencies (negative Signs) ******

                      1                      2                      3
                      A                      A                      A
 Frequencies --  -1299.3225                37.9868                45.4136
 Red. masses --      1.0751                16.0273                13.0266
 Frc consts  --      1.0693                 0.0136                 0.0158
 IR Inten    --   2689.8506                 1.2698                 0.4077

                      4                      5                      6
                      A                      A                      A
 Frequencies --     53.5915                74.2481                84.0104
 Red. masses --     14.2834                20.0199                18.7175
 Frc consts  --      0.0242                 0.0650                 0.0778
 IR Inten    --      0.1612                 0.2641                 1.6346

                      7                      8                      9
                      A                      A                      A
 Frequencies --     96.4833               100.1333               111.4356
 Red. masses --     20.9507                24.0318                24.2134
 Frc consts  --      0.1149                 0.1420                 0.1772
 IR Inten    --      1.2886                 0.2924                 0.5739

                     10                     11                     12
                      A                      A                      A
 Frequencies --    116.4616               125.6277               132.0526
 Red. masses --     32.3103                13.6028                15.1745
 Frc consts  --      0.2582                 0.1265                 0.1559
 IR Inten    --      0.5964                 0.0962                 0.7092

                     13                     14                     15
                      A                      A                      A
 Frequencies --    139.0442               151.4689               155.0762
 Red. masses --     24.3533                29.1683                13.4174
 Frc consts  --      0.2774                 0.3943                 0.1901
 IR Inten    --      0.2838                 0.1524                 2.1773

                     16                     17                     18
                      A                      A                      A
 Frequencies --    156.4859               171.9418               180.7663
 Red. masses --     24.8369                29.4512                23.9307
 Frc consts  --      0.3583                 0.5130                 0.4607
 IR Inten    --      0.3230                 0.2736                 4.2178

                     19                     20                     21
                      A                      A                      A
 Frequencies --    206.3273               209.9122               215.2954
 Red. masses --      9.7090                15.6054                24.3839
 Frc consts  --      0.2435                 0.4051                 0.6659
 IR Inten    --      2.7629                 0.4544                 0.2425

                     22                     23                     24
                      A                      A                      A
 Frequencies --    220.8735               235.1276               242.2123
 Red. masses --     22.7530                21.7052                29.0355
 Frc consts  --      0.6540                 0.7070                 1.0036
 IR Inten    --      1.9866                 8.4491                 6.3523

                     25                     26                     27
                      A                      A                      A
 Frequencies --    245.7626               264.8256               269.7497
 Red. masses --     31.6193                26.7236                29.2569
 Frc consts  --      1.1252                 1.1042                 1.2543
 IR Inten    --      2.2641                 3.9653                 1.8144

                     28                     29                     30
                      A                      A                      A
 Frequencies --    277.7560               282.5614               293.3257
 Red. masses --     28.8462                26.7824                23.2992
 Frc consts  --      1.3112                 1.2599                 1.1811
 IR Inten    --      1.9686                25.2118                17.3854

                     31                     32                     33
                      A                      A                      A
 Frequencies --    315.1064               319.8089               333.4949
 Red. masses --      8.9917                13.6953                10.0826
 Frc consts  --      0.5260                 0.8253                 0.6607
 IR Inten    --      8.5325                 4.0757                 7.2841

                     34                     35                     36
                      A                      A                      A
 Frequencies --    339.9799               348.3024               353.7765
 Red. masses --     13.4786                24.8422                 5.5734
 Frc consts  --      0.9179                 1.7756                 0.4110
 IR Inten    --     20.5825                 0.1929                34.2980

                     37                     38                     39
                      A                      A                      A
 Frequencies --    355.4824               389.8366               402.2313
 Red. masses --      2.3526                 8.7204                 1.4586
 Frc consts  --      0.1752                 0.7808                 0.1390
 IR Inten    --      3.7246                26.6831                 6.0318

                     40                     41                     42
                      A                      A                      A
 Frequencies --    405.0793               415.4419               423.1335
 Red. masses --      4.0152                 7.2359                 1.8481
 Frc consts  --      0.3882                 0.7358                 0.1950
 IR Inten    --     19.8223                 9.4060                 0.5448

                     43                     44                     45
                      A                      A                      A
 Frequencies --    428.5453               436.9272               442.0474
 Red. masses --      5.6125                11.0713                16.6415
 Frc consts  --      0.6073                 1.2453                 1.9159
 IR Inten    --     40.7053                 8.7185                15.2190

                     46                     47                     48
                      A                      A                      A
 Frequencies --    459.7284               508.3941               559.8780
 Red. masses --     25.8860                 1.0850                 1.0926
 Frc consts  --      3.2234                 0.1652                 0.2018
 IR Inten    --     34.0058                12.0851                11.3751

                     49                     50                     51
                      A                      A                      A
 Frequencies --    631.3611               665.8189               728.9780
 Red. masses --      1.0608                 1.0519                 1.0597
 Frc consts  --      0.2491                 0.2748                 0.3318
 IR Inten    --     10.1414                 2.8186                 2.7745

                     52                     53                     54
                      A                      A                      A
 Frequencies --    779.0246              1005.2473              1091.5604
 Red. masses --      1.0428                 1.0446                 1.0185
 Frc consts  --      0.3729                 0.6220                 0.7150
 IR Inten    --     18.3206                27.1849                39.7335

                     55                     56                     57
                      A                      A                      A
 Frequencies --   1147.8778              1497.3294              2624.0349
 Red. masses --      1.0169                 1.0266                 1.0379
 Frc consts  --      0.7894                 1.3560                 4.2108
 IR Inten    --      0.7611               147.0120                18.0334

                     58                     59                     60
                      A                      A                      A
 Frequencies --   2634.2582              2678.4457              2680.6205
 Red. masses --      1.0381                 1.0384                 1.0385
 Frc consts  --      4.2445                 4.3894                 4.3969
 IR Inten    --     21.4254                 1.4477                 0.3622

 - Thermochemistry -
 -------------------
 Temperature   298.150 Kelvin.  Pressure   1.00000 Atm.
 Atom     1 has atomic number 42 and mass  97.90550

 Molecular mass:   847.26724 amu.
 Principal axes and moments of inertia in atomic units:
                           1         2         3
     Eigenvalues --  9707.39910********************
           X            0.88914  -0.44863   0.09030
           Y           -0.34321  -0.52321   0.78004
           Z            0.30271   0.72456   0.61918
 This molecule is an asymmetric top.
 Rotational symmetry number  1.
 Warning -- assumption of classical behavior for rotation
           may cause significant error
 Rotational temperatures (Kelvin)      0.00892     0.00437     0.00367
 Rotational constants (GHZ):           0.18591     0.09096     0.07654
    1 imaginary frequencies ignored.
 Zero-point vibrational energy     181220.5 (Joules/Mol)
                                   43.31275 (Kcal/Mol)
 Warning -- explicit consideration of  47 degrees of freedom as
           vibrations may cause significant error
 Vibrational temperatures:     54.65    65.34    77.11   106.83   120.87
          (Kelvin)            138.82   144.07   160.33   167.56   180.75
                              189.99   200.05   217.93   223.12   225.15
                              247.39   260.08   296.86   302.02   309.76
                              317.79   338.30   348.49   353.60   381.02
                              388.11   399.63   406.54   422.03   453.37
                              460.13   479.82   489.16   501.13   509.01
                              511.46   560.89   578.72   582.82   597.73
                              608.79   616.58   628.64   636.01   661.45
                              731.47   805.54   908.39   957.96  1048.84
                             1120.84  1446.33  1570.51  1651.54  2154.32
                             3775.40  3790.11  3853.69  3856.81

 Zero-point correction=                           0.069023 (Hartree/Particle)
 Thermal correction to Energy=                    0.096034
 Thermal correction to Enthalpy=                  0.096978
 Thermal correction to Gibbs Free Energy=         0.011066
 Sum of electronic and zero-point Energies=          -4721.725709
 Sum of electronic and thermal Energies=             -4721.698698
 Sum of electronic and thermal Enthalpies=           -4721.697754
 Sum of electronic and thermal Free Energies=        -4721.783666

                     E (Thermal)             CV                S
                      KCal/Mol        Cal/Mol-Kelvin    Cal/Mol-Kelvin
 Total                   60.262             90.625            180.817
 Electronic               0.000              0.000              0.000
 Translational            0.889              2.981             46.088
 Rotational               0.889              2.981             36.761
 Vibrational             58.485             84.664             97.969
 Vibration     1          0.594              1.982              5.361
 Vibration     2          0.595              1.979              5.008
 Vibration     3          0.596              1.976              4.680
 Vibration     4          0.599              1.966              4.037
 Vibration     5          0.601              1.960              3.795
 Vibration     6          0.603              1.952              3.524
 Vibration     7          0.604              1.949              3.452
 Vibration     8          0.607              1.940              3.244
 Vibration     9          0.608              1.936              3.158
 Vibration    10          0.611              1.927              3.012
 Vibration    11          0.612              1.921              2.916
 Vibration    12          0.615              1.914              2.817
 Vibration    13          0.619              1.901              2.654
 Vibration    14          0.620              1.897              2.609
 Vibration    15          0.620              1.895              2.592
 Vibration    16          0.626              1.877              2.414
 Vibration    17          0.630              1.866              2.320
 Vibration    18          0.641              1.831              2.076
 Vibration    19          0.642              1.826              2.044
 Vibration    20          0.645              1.818              1.998
 Vibration    21          0.648              1.809              1.952
 Vibration    22          0.655              1.787              1.839
 Vibration    23          0.658              1.776              1.787
 Vibration    24          0.660              1.770              1.761
 Vibration    25          0.671              1.737              1.630
 Vibration    26          0.674              1.729              1.598
 Vibration    27          0.679              1.715              1.547
 Vibration    28          0.682              1.706              1.518
 Vibration    29          0.688              1.686              1.455
 Vibration    30          0.702              1.645              1.335
 Vibration    31          0.706              1.636              1.311
 Vibration    32          0.715              1.609              1.243
 Vibration    33          0.720              1.596              1.212
 Vibration    34          0.726              1.579              1.174
 Vibration    35          0.730              1.568              1.149
 Vibration    36          0.731              1.564              1.142
 Vibration    37          0.758              1.492              1.001
 Vibration    38          0.768              1.465              0.954
 Vibration    39          0.770              1.459              0.944
 Vibration    40          0.779              1.437              0.908
 Vibration    41          0.785              1.420              0.881
 Vibration    42          0.790              1.408              0.863
 Vibration    43          0.797              1.390              0.836
 Vibration    44          0.802              1.378              0.820
 Vibration    45          0.818              1.339              0.767
 Vibration    46          0.864              1.231              0.637
 Vibration    47          0.915              1.118              0.524

 Optimization completed.
    -- Stationary point found.
 Normal termination of Gaussian 16 at Fri Nov  4 09:20:01 2022.
