 Gaussian 16, Revision C.01,
 Gaussian 16:  ES64L-G16RevC.01  3-Jul-2019

 ---------------------------------------
 # opt freq b3lyp/gen nosymm pseudo=read
 ---------------------------------------

 -------------------
 Title Card Required
 -------------------
 Symbolic Z-matrix:
 Charge =  0 Multiplicity = 1

 SCF Done:  E(RB3LYP) =  -4720.63324892     A.U. after   33 cycles
 SCF Done:  E(RB3LYP) =  -4720.64539261     A.U. after   23 cycles
 SCF Done:  E(RB3LYP) =  -4720.65017120     A.U. after   21 cycles
 SCF Done:  E(RB3LYP) =  -4720.65105432     A.U. after   21 cycles
 SCF Done:  E(RB3LYP) =  -4720.65134833     A.U. after   20 cycles
 SCF Done:  E(RB3LYP) =  -4720.65145542     A.U. after   20 cycles
 SCF Done:  E(RB3LYP) =  -4720.65155892     A.U. after   19 cycles
 SCF Done:  E(RB3LYP) =  -4720.65161201     A.U. after   20 cycles
 SCF Done:  E(RB3LYP) =  -4720.65163413     A.U. after   17 cycles
 SCF Done:  E(RB3LYP) =  -4720.65166775     A.U. after   20 cycles
 SCF Done:  E(RB3LYP) =  -4720.65312984     A.U. after   12 cycles
 SCF Done:  E(RB3LYP) =  -4720.65312988     A.U. after   13 cycles
 SCF Done:  E(RB3LYP) =  -4720.65312990     A.U. after   13 cycles
 SCF Done:  E(RB3LYP) =  -4720.65312993     A.U. after   13 cycles
 SCF Done:  E(RB3LYP) =  -4720.65312996     A.U. after   14 cycles
 SCF Done:  E(RB3LYP) =  -4720.65312999     A.U. after   14 cycles
 SCF Done:  E(RB3LYP) =  -4720.65313001     A.U. after   15 cycles
 SCF Done:  E(RB3LYP) =  -4720.65313003     A.U. after   14 cycles
 SCF Done:  E(RB3LYP) =  -4720.65313005     A.U. after   13 cycles
 Optimization completed.
    -- Stationary point found.
 Normal termination of Gaussian 16 at Fri Nov  4 09:28:43 2022.

 ------------------------------------------------------------------
 #N Geom=AllCheck Guess=TCheck SCRF=Check GenChk RB3LYP/ChkBas Freq
 ------------------------------------------------------------------

 Structure from the checkpoint file:  "/home/chesagar/scratch/Gau-222814.chk"
 -------------------
 Title Card Required
 -------------------
 Charge =  0 Multiplicity = 1

                          Input orientation:
 ---------------------------------------------------------------------
 Center     Atomic      Atomic             Coordinates (Angstroms)
 Number     Number       Type             X           Y           Z
 ---------------------------------------------------------------------
      1         42           0        0.205361    1.528883   11.854598
      2         16           0        1.238745    3.600495   11.920653
      3         16           0       -1.655436    1.833068   13.292301
      4         16           0       -0.839005    1.126431    9.769206
      5         16           0        1.800929   -0.069613   11.591216
      6         42           0       -2.276617    2.443424   11.138026
      7         16           0       -3.760213    2.675644    9.198360
      8         16           0       -1.908406    4.738283   11.064199
      9         42           0       -0.169977    3.431794    9.817404
     10         16           0       -0.071804    5.758956    8.742624
     11          1           0        0.514716    5.531225    7.549444
     12         16           0        1.973839    2.663001    8.664292
     13         42           0        2.713680    1.994877   10.675661
     14         42           0       -2.095110    4.140380    8.563336
     15         16           0        4.276780    3.510020   11.622053
     16          1           0        5.468803    2.957107   11.300140
     17         16           0        4.495918    0.568161   10.099080
     18          1           0        5.442854    1.465474    9.733151
     19         16           0       -2.144081    4.259823    6.236984
     20          1           0       -0.910365    3.806549    5.923341
 ---------------------------------------------------------------------

 SCF Done:  E(RB3LYP) =  -4720.65313005     A.U. after    1 cycles

 Alpha  occ. eigenvalues --  -88.92336 -88.91548 -88.90417 -88.89737 -88.89420
 Alpha  occ. eigenvalues --  -88.89070 -88.88853 -88.88263 -88.87962 -88.87505
 Alpha  occ. eigenvalues --  -88.87094  -7.99910  -7.99149  -7.97969  -7.97353
 Alpha  occ. eigenvalues --   -7.97157  -7.96874  -7.96718  -7.95988  -7.95771
 Alpha  occ. eigenvalues --   -7.95202  -7.94768  -5.95912  -5.95876  -5.95811
 Alpha  occ. eigenvalues --   -5.95186  -5.95099  -5.95035  -5.93991  -5.93953
 Alpha  occ. eigenvalues --   -5.93845  -5.93619  -5.93204  -5.93160  -5.93119
 Alpha  occ. eigenvalues --   -5.93114  -5.93053  -5.92967  -5.92890  -5.92880
 Alpha  occ. eigenvalues --   -5.92695  -5.92579  -5.92437  -5.92018  -5.91970
 Alpha  occ. eigenvalues --   -5.91835  -5.91829  -5.91770  -5.91548  -5.91478
 Alpha  occ. eigenvalues --   -5.91073  -5.91059  -5.90911  -5.90667  -5.90440
 Alpha  occ. eigenvalues --   -2.56604  -2.55990  -2.55601  -2.55410  -2.55002
 Alpha  occ. eigenvalues --   -1.60690  -1.59895  -1.59569  -1.59079  -1.58824
 Alpha  occ. eigenvalues --   -1.58566  -1.58120  -1.57914  -1.57528  -1.57276
 Alpha  occ. eigenvalues --   -1.56934  -1.56905  -1.56674  -1.56336  -1.54490
 Alpha  occ. eigenvalues --   -0.76502  -0.75212  -0.74391  -0.74186  -0.73847
 Alpha  occ. eigenvalues --   -0.72515  -0.72450  -0.71445  -0.71210  -0.70527
 Alpha  occ. eigenvalues --   -0.70219  -0.46656  -0.45031  -0.44602  -0.42623
 Alpha  occ. eigenvalues --   -0.42336  -0.41957  -0.41593  -0.41357  -0.40118
 Alpha  occ. eigenvalues --   -0.39694  -0.38935  -0.38478  -0.37588  -0.37278
 Alpha  occ. eigenvalues --   -0.36583  -0.36274  -0.35834  -0.34864  -0.34701
 Alpha  occ. eigenvalues --   -0.34284  -0.34063  -0.33855  -0.33431  -0.33194
 Alpha  occ. eigenvalues --   -0.32393  -0.32084  -0.31565  -0.31061  -0.30401
 Alpha  occ. eigenvalues --   -0.30030  -0.29728  -0.28692  -0.27907  -0.27522
 Alpha  occ. eigenvalues --   -0.27205  -0.26129  -0.25316  -0.25135  -0.24155
 Alpha virt. eigenvalues --   -0.17669  -0.16711  -0.16234  -0.15133  -0.14171
 Alpha virt. eigenvalues --   -0.13829  -0.13129  -0.12875  -0.12583  -0.11712
 Alpha virt. eigenvalues --   -0.10852  -0.10110  -0.09793  -0.08399  -0.07985

 Mulliken charges:
               1
     1  Mo   0.029774
     2  S    0.157532
     3  S   -0.074382
     4  S    0.262728
     5  S   -0.033428
     6  Mo  -0.088972
     7  S   -0.045507
     8  S    0.154119
     9  Mo  -0.348355
    10  S    0.033151
    11  H    0.101288
    12  S   -0.063563
    13  Mo  -0.215638
    14  Mo   0.056501
    15  S   -0.010615
    16  H    0.052332
    17  S   -0.000928
    18  H    0.064566
    19  S   -0.132548
    20  H    0.101946
 Sum of Mulliken charges =  -0.00000

 Dipole moment (field-independent basis, Debye):
    X=             -1.9863    Y=              0.5991    Z=             -1.1368  Tot=              2.3657
 Quadrupole moment (field-independent basis, Debye-Ang):
   XX=           -256.6825   YY=           -264.2600   ZZ=           -284.7230
   XY=             -1.3440   XZ=            -29.2246   YZ=             -0.8490

  Exact polarizability:     567.541     -68.689     359.321      53.620     -74.776     416.786
 Approx polarizability:    1730.335    -224.529    1130.666     139.732    -301.248    1347.202

                      1                      2                      3
                      A                      A                      A
 Frequencies --     16.4145                43.7805                49.9702
 Red. masses --     13.1527                15.4005                19.6847
 Frc consts  --      0.0021                 0.0174                 0.0290
 IR Inten    --      1.0385                 0.5077                 0.0950

                      4                      5                      6
                      A                      A                      A
 Frequencies --     70.1863                86.7152                93.9847
 Red. masses --     17.9510                17.5374                26.0136
 Frc consts  --      0.0521                 0.0777                 0.1354
 IR Inten    --      0.4253                 0.8330                 3.9304

                      7                      8                      9
                      A                      A                      A
 Frequencies --    101.1060               108.7304               116.9492
 Red. masses --     30.1184                13.1694                32.1823
 Frc consts  --      0.1814                 0.0917                 0.2593
 IR Inten    --      0.6470                 1.3239                 0.9962

                     10                     11                     12
                      A                      A                      A
 Frequencies --    123.3154               131.5632               136.8914
 Red. masses --     15.1856                22.8394                13.5706
 Frc consts  --      0.1361                 0.2329                 0.1498
 IR Inten    --      3.1717                 0.0150                 0.6751

                     13                     14                     15
                      A                      A                      A
 Frequencies --    145.2400               154.2313               158.3185
 Red. masses --     18.7293                29.4904                28.8265
 Frc consts  --      0.2328                 0.4133                 0.4257
 IR Inten    --      0.7520                 0.7286                 0.4900

                     16                     17                     18
                      A                      A                      A
 Frequencies --    170.3228               173.2976               187.8531
 Red. masses --     21.3855                21.9528                21.9484
 Frc consts  --      0.3655                 0.3884                 0.4563
 IR Inten    --      2.8021                 1.7460                 3.3999

                     19                     20                     21
                      A                      A                      A
 Frequencies --    208.7459               212.8668               213.4622
 Red. masses --     16.9623                22.0317                 9.3656
 Frc consts  --      0.4355                 0.5882                 0.2514
 IR Inten    --      6.7717                 9.4835                 1.5577

                     22                     23                     24
                      A                      A                      A
 Frequencies --    227.3199               231.4113               244.2014
 Red. masses --     14.0602                10.5132                 8.9909
 Frc consts  --      0.4281                 0.3317                 0.3159
 IR Inten    --      4.1975                 5.0509                 4.5911

                     25                     26                     27
                      A                      A                      A
 Frequencies --    248.0761               260.7315               270.8867
 Red. masses --     34.8213                 7.9386                25.4885
 Frc consts  --      1.2626                 0.3180                 1.1020
 IR Inten    --      3.6140                 6.3646                 0.9291

                     28                     29                     30
                      A                      A                      A
 Frequencies --    272.8182               280.7909               286.7909
 Red. masses --     24.3464                 3.8745                 6.2567
 Frc consts  --      1.0677                 0.1800                 0.3032
 IR Inten    --     16.8210                14.0814                17.3185

                     31                     32                     33
                      A                      A                      A
 Frequencies --    312.5950               332.3027               342.6732
 Red. masses --     33.3034                22.2956                15.4644
 Frc consts  --      1.9174                 1.4506                 1.0699
 IR Inten    --      2.6829                 4.5695                23.3796

                     34                     35                     36
                      A                      A                      A
 Frequencies --    344.3788               354.0728               361.5921
 Red. masses --     33.8548                15.4309                26.7251
 Frc consts  --      2.3656                 1.1398                 2.0588
 IR Inten    --      2.5100                29.7026                73.8110

                     37                     38                     39
                      A                      A                      A
 Frequencies --    387.5857               405.8507               408.7751
 Red. masses --     22.2249                 9.4760                 1.2100
 Frc consts  --      1.9671                 0.9196                 0.1191
 IR Inten    --     38.7141                12.7798                10.9084

                     40                     41                     42
                      A                      A                      A
 Frequencies --    413.6060               424.6634               428.1424
 Red. masses --      9.6873                10.0572                 1.7620
 Frc consts  --      0.9764                 1.0686                 0.1903
 IR Inten    --      9.6449                15.9475                15.5688

                     43                     44                     45
                      A                      A                      A
 Frequencies --    436.1580               444.1327               458.8697
 Red. masses --      5.4927                21.9841                24.3912
 Frc consts  --      0.6156                 2.5550                 3.0260
 IR Inten    --     10.4300                10.2569                32.0209

                     46                     47                     48
                      A                      A                      A
 Frequencies --    546.1095               567.0841               632.0124
 Red. masses --      1.0950                 1.0638                 1.0567
 Frc consts  --      0.1924                 0.2016                 0.2487
 IR Inten    --      2.7905                11.9367                13.7904

                     49                     50                     51
                      A                      A                      A
 Frequencies --    730.1133               776.4076              2626.6687
 Red. masses --      1.0602                 1.0427                 1.0380
 Frc consts  --      0.3330                 0.3703                 4.2195
 IR Inten    --      2.7722                19.6007                13.6651

                     52                     53                     54
                      A                      A                      A
 Frequencies --   2638.8644              2663.2268              2681.8000
 Red. masses --      1.0381                 1.0382                 1.0383
 Frc consts  --      4.2591                 4.3386                 4.3995
 IR Inten    --     20.2473                 2.0399                 0.2733

 - Thermochemistry -
 -------------------
 Temperature   298.150 Kelvin.  Pressure   1.00000 Atm.
 Atom     1 has atomic number 42 and mass  97.90550

 Molecular mass:   845.25159 amu.
 Principal axes and moments of inertia in atomic units:
                           1         2         3
     Eigenvalues --  9842.66970********************
           X            0.87445  -0.47356   0.10522
           Y           -0.34882  -0.46306   0.81480
           Z            0.33713   0.74921   0.57011
 This molecule is an asymmetric top.
 Rotational symmetry number  1.
 Warning -- assumption of classical behavior for rotation
           may cause significant error
 Rotational temperatures (Kelvin)      0.00880     0.00444     0.00362
 Rotational constants (GHZ):           0.18336     0.09242     0.07533
 Zero-point vibrational energy     148005.9 (Joules/Mol)
                                   35.37426 (Kcal/Mol)
 Warning -- explicit consideration of  47 degrees of freedom as
           vibrations may cause significant error
 Vibrational temperatures:     23.62    62.99    71.90   100.98   124.76
          (Kelvin)            135.22   145.47   156.44   168.26   177.42
                              189.29   196.96   208.97   221.90   227.79
                              245.06   249.34   270.28   300.34   306.27
                              307.12   327.06   332.95   351.35   356.93
                              375.13   389.75   392.52   404.00   412.63
                              449.75   478.11   493.03   495.48   509.43
                              520.25   557.65   583.93   588.14   595.09
                              611.00   616.00   627.53   639.01   660.21
                              785.73   815.91   909.32  1050.47  1117.08
                             3779.19  3796.74  3831.79  3858.51

 Zero-point correction=                           0.056372 (Hartree/Particle)
 Thermal correction to Energy=                    0.083423
 Thermal correction to Enthalpy=                  0.084368
 Thermal correction to Gibbs Free Energy=        -0.002734
 Sum of electronic and zero-point Energies=          -4720.596758
 Sum of electronic and thermal Energies=             -4720.569707
 Sum of electronic and thermal Enthalpies=           -4720.568762
 Sum of electronic and thermal Free Energies=        -4720.655864

                     E (Thermal)             CV                S
                      KCal/Mol        Cal/Mol-Kelvin    Cal/Mol-Kelvin
 Total                   52.349             88.907            183.322
 Electronic               0.000              0.000              0.000
 Translational            0.889              2.981             46.080
 Rotational               0.889              2.981             36.774
 Vibrational             50.572             82.945            100.467
 Vibration     1          0.593              1.986              7.027
 Vibration     2          0.595              1.980              5.080
 Vibration     3          0.595              1.978              4.819
 Vibration     4          0.598              1.968              4.148
 Vibration     5          0.601              1.958              3.733
 Vibration     6          0.603              1.953              3.575
 Vibration     7          0.604              1.948              3.433
 Vibration     8          0.606              1.942              3.291
 Vibration     9          0.608              1.935              3.150
 Vibration    10          0.610              1.930              3.048
 Vibration    11          0.612              1.922              2.923
 Vibration    12          0.614              1.916              2.847
 Vibration    13          0.617              1.908              2.734
 Vibration    14          0.620              1.898              2.619
 Vibration    15          0.621              1.893              2.570
 Vibration    16          0.625              1.879              2.432
 Vibration    17          0.627              1.875              2.399
 Vibration    18          0.633              1.857              2.249
 Vibration    19          0.642              1.827              2.055
 Vibration    20          0.644              1.821              2.019
 Vibration    21          0.644              1.820              2.014
 Vibration    22          0.651              1.799              1.900
 Vibration    23          0.653              1.793              1.868
 Vibration    24          0.660              1.772              1.772
 Vibration    25          0.662              1.766              1.744
 Vibration    26          0.669              1.745              1.657
 Vibration    27          0.675              1.727              1.591
 Vibration    28          0.676              1.723              1.578
 Vibration    29          0.680              1.709              1.529
 Vibration    30          0.684              1.698              1.493
 Vibration    31          0.701              1.650              1.349
 Vibration    32          0.714              1.611              1.249
 Vibration    33          0.722              1.590              1.200
 Vibration    34          0.723              1.587              1.192
 Vibration    35          0.730              1.567              1.148
 Vibration    36          0.736              1.551              1.115
 Vibration    37          0.756              1.497              1.009
 Vibration    38          0.771              1.457              0.941
 Vibration    39          0.773              1.451              0.931
 Vibration    40          0.777              1.441              0.914
 Vibration    41          0.787              1.417              0.876
 Vibration    42          0.790              1.409              0.865
 Vibration    43          0.797              1.391              0.839
 Vibration    44          0.804              1.374              0.814
 Vibration    45          0.817              1.341              0.769
 Vibration    46          0.901              1.148              0.552
 Vibration    47          0.923              1.102              0.510

 Optimization completed.
    -- Stationary point found.
 Normal termination of Gaussian 16 at Fri Nov  4 09:30:36 2022.
