 Gaussian 16, Revision C.01,
 Gaussian 16:  ES64L-G16RevC.01  3-Jul-2019

 --------------------------------------------------------
 # opt=(qst3,redundant) freq b3lyp/gen nosymm pseudo=read
 --------------------------------------------------------

 -------------------
 Title Card Required
 -------------------
 Symbolic Z-matrix:
 Charge =  0 Multiplicity = 1

 -------
 product
 -------
 Symbolic Z-matrix:
 Charge =  0 Multiplicity = 1

 --
 ts
 --
 Symbolic Z-matrix:
 Charge =  0 Multiplicity = 1

 SCF Done:  E(RB3LYP) =  -4720.64750217     A.U. after   37 cycles
 SCF Done:  E(RB3LYP) =  -4720.64518460     A.U. after   25 cycles
 SCF Done:  E(RB3LYP) =  -4720.64345475     A.U. after   27 cycles
 SCF Done:  E(RB3LYP) =  -4720.64491338     A.U. after   24 cycles
 SCF Done:  E(RB3LYP) =  -4720.64487737     A.U. after   26 cycles
 SCF Done:  E(RB3LYP) =  -4720.64524716     A.U. after   26 cycles
 SCF Done:  E(RB3LYP) =  -4720.64561381     A.U. after   25 cycles
 SCF Done:  E(RB3LYP) =  -4720.64584074     A.U. after   27 cycles
 SCF Done:  E(RB3LYP) =  -4720.64605041     A.U. after   25 cycles
 SCF Done:  E(RB3LYP) =  -4720.64634378     A.U. after   25 cycles
 SCF Done:  E(RB3LYP) =  -4720.65292302     A.U. after   17 cycles
 SCF Done:  E(RB3LYP) =  -4720.65292342     A.U. after   16 cycles
 SCF Done:  E(RB3LYP) =  -4720.65292317     A.U. after   19 cycles
 SCF Done:  E(RB3LYP) =  -4720.65292382     A.U. after   17 cycles
 SCF Done:  E(RB3LYP) =  -4720.65292407     A.U. after   16 cycles
 SCF Done:  E(RB3LYP) =  -4720.65292423     A.U. after   16 cycles
 SCF Done:  E(RB3LYP) =  -4720.65292424     A.U. after   17 cycles
 SCF Done:  E(RB3LYP) =  -4720.65292428     A.U. after   15 cycles
 SCF Done:  E(RB3LYP) =  -4720.65292431     A.U. after   14 cycles
 Optimization completed.
    -- Stationary point found.
 Normal termination of Gaussian 16 at Fri Nov 11 12:42:30 2022.

 ------------------------------------------------------------------
 #N Geom=AllCheck Guess=TCheck SCRF=Check GenChk RB3LYP/ChkBas Freq
 ------------------------------------------------------------------

 Structure from the checkpoint file:  "/home/chesagar/scratch/Gau-37878.chk"
 -------------------
 Title Card Required
 -------------------
 Charge =  0 Multiplicity = 1

                          Input orientation:
 ---------------------------------------------------------------------
 Center     Atomic      Atomic             Coordinates (Angstroms)
 Number     Number       Type             X           Y           Z
 ---------------------------------------------------------------------
      1         42           0        0.248556    1.550494   11.929017
      2         16           0        1.254021    3.648780   11.865631
      3         16           0       -1.632765    1.983410   13.301572
      4         16           0       -0.757116    1.013468    9.838320
      5         16           0        1.869586   -0.029351   11.821989
      6         42           0       -2.246242    2.356643   11.099114
      7         16           0       -3.740889    2.496478    9.105859
      8         16           0       -1.886300    4.673007   10.887955
      9         42           0       -0.099524    3.309743    9.787077
     10         16           0        0.065597    5.423545    8.449120
     11          1           0        0.682875    4.983748    7.333100
     12         16           0        2.062877    2.455154    8.704003
     13         42           0        2.769889    1.977608   10.770032
     14         42           0       -2.136949    3.977662    8.520851
     15         16           0        4.290571    3.597858   11.610744
     16          1           0        5.498017    3.047066   11.348134
     17         16           0        4.592890    0.541868   10.352024
     18          1           0        5.530451    1.423372    9.928802
     19         16           0       -2.629136    4.626339    6.332873
     20          1           0       -1.435797    4.907087    5.769852
 ---------------------------------------------------------------------

 SCF Done:  E(RB3LYP) =  -4720.65292431     A.U. after    3 cycles

 Alpha  occ. eigenvalues --  -88.92242 -88.92020 -88.90412 -88.89739 -88.89665
 Alpha  occ. eigenvalues --  -88.89379 -88.88627 -88.88385 -88.88059 -88.87383
 Alpha  occ. eigenvalues --  -88.86990  -7.99830  -7.99615  -7.97957  -7.97572
 Alpha  occ. eigenvalues --   -7.97409  -7.97038  -7.96449  -7.96124  -7.95864
 Alpha  occ. eigenvalues --   -7.95079  -7.94663  -5.95834  -5.95794  -5.95731
 Alpha  occ. eigenvalues --   -5.95649  -5.95545  -5.95524  -5.93982  -5.93944
 Alpha  occ. eigenvalues --   -5.93829  -5.93601  -5.93531  -5.93423  -5.93418
 Alpha  occ. eigenvalues --   -5.93360  -5.93315  -5.93299  -5.92893  -5.92782
 Alpha  occ. eigenvalues --   -5.92705  -5.92303  -5.92179  -5.92143  -5.92090
 Alpha  occ. eigenvalues --   -5.91991  -5.91928  -5.91859  -5.91646  -5.91357
 Alpha  occ. eigenvalues --   -5.90955  -5.90949  -5.90788  -5.90561  -5.90335
 Alpha  occ. eigenvalues --   -2.56494  -2.55811  -2.55465  -2.55273  -2.55066
 Alpha  occ. eigenvalues --   -1.60161  -1.59668  -1.59438  -1.58978  -1.58754
 Alpha  occ. eigenvalues --   -1.58494  -1.57953  -1.57754  -1.57397  -1.57217
 Alpha  occ. eigenvalues --   -1.56872  -1.56856  -1.56656  -1.56238  -1.54878
 Alpha  occ. eigenvalues --   -0.76535  -0.75152  -0.74493  -0.74152  -0.73731
 Alpha  occ. eigenvalues --   -0.72796  -0.72471  -0.71710  -0.71279  -0.70631
 Alpha  occ. eigenvalues --   -0.70314  -0.46612  -0.44914  -0.44582  -0.42538
 Alpha  occ. eigenvalues --   -0.42290  -0.42019  -0.41753  -0.41400  -0.40173
 Alpha  occ. eigenvalues --   -0.39774  -0.38960  -0.38561  -0.37589  -0.37369
 Alpha  occ. eigenvalues --   -0.36635  -0.36574  -0.35916  -0.34968  -0.34765
 Alpha  occ. eigenvalues --   -0.34231  -0.34131  -0.33980  -0.33540  -0.33151
 Alpha  occ. eigenvalues --   -0.32519  -0.31948  -0.31611  -0.31333  -0.30311
 Alpha  occ. eigenvalues --   -0.29902  -0.29464  -0.28543  -0.27842  -0.27535
 Alpha  occ. eigenvalues --   -0.27043  -0.26112  -0.25272  -0.24788  -0.23935
 Alpha virt. eigenvalues --   -0.18179  -0.16520  -0.16417  -0.14990  -0.14269
 Alpha virt. eigenvalues --   -0.13748  -0.12971  -0.12615  -0.12431  -0.11611
 Alpha virt. eigenvalues --   -0.10837  -0.10161  -0.10090  -0.08597  -0.08121

 Mulliken charges:
               1
     1  Mo   0.038122
     2  S    0.156371
     3  S   -0.070619
     4  S    0.241317
     5  S   -0.037534
     6  Mo  -0.102044
     7  S   -0.076260
     8  S    0.150715
     9  Mo  -0.291536
    10  S    0.011094
    11  H    0.105909
    12  S   -0.056355
    13  Mo  -0.215544
    14  Mo   0.081984
    15  S   -0.011411
    16  H    0.051702
    17  S   -0.002467
    18  H    0.064365
    19  S   -0.122014
    20  H    0.084204
 Sum of Mulliken charges =  -0.00000

 Dipole moment (field-independent basis, Debye):
    X=             -2.0582    Y=              0.2243    Z=             -0.8804  Tot=              2.2498
 Quadrupole moment (field-independent basis, Debye-Ang):
   XX=           -258.2585   YY=           -266.6879   ZZ=           -278.1190
   XY=              0.8493   XZ=            -31.9707   YZ=             -4.5914

  Exact polarizability:     592.219     -75.543     356.484      77.909     -87.009     421.643
 Approx polarizability:    1846.157    -248.623    1117.376     217.565    -339.625    1365.320

 ******    1 imaginary frequencies (negative Signs) ******

                      1                      2                      3
                      A                      A                      A
 Frequencies --    -28.4880                23.9620                46.9920
 Red. masses --     11.6351                23.0833                16.8871
 Frc consts  --      0.0056                 0.0078                 0.0220
 IR Inten    --      3.9612                 1.9368                 0.1029

                      4                      5                      6
                      A                      A                      A
 Frequencies --     59.3602                79.1092                89.8067
 Red. masses --     18.4583                18.5110                19.8273
 Frc consts  --      0.0383                 0.0683                 0.0942
 IR Inten    --      0.9366                 1.0933                 1.6217

                      7                      8                      9
                      A                      A                      A
 Frequencies --     94.8396               102.8729               116.7078
 Red. masses --     20.7369                20.3020                28.7329
 Frc consts  --      0.1099                 0.1266                 0.2306
 IR Inten    --      0.4352                 0.7372                 0.5835

                     10                     11                     12
                      A                      A                      A
 Frequencies --    125.9916               128.0031               140.4999
 Red. masses --     20.7076                34.3718                15.9712
 Frc consts  --      0.1937                 0.3318                 0.1858
 IR Inten    --      0.5194                 2.7583                 3.3821

                     13                     14                     15
                      A                      A                      A
 Frequencies --    149.0111               152.4277               153.3379
 Red. masses --     15.9630                23.8356                28.3475
 Frc consts  --      0.2088                 0.3263                 0.3927
 IR Inten    --      1.9582                 1.8606                 0.2856

                     16                     17                     18
                      A                      A                      A
 Frequencies --    167.0842               181.6670               188.5499
 Red. masses --     22.2406                25.6936                15.1090
 Frc consts  --      0.3658                 0.4996                 0.3165
 IR Inten    --      2.8776                 0.9934                 5.2492

                     19                     20                     21
                      A                      A                      A
 Frequencies --    198.8265               210.8458               215.9466
 Red. masses --     15.3949                14.9463                25.2816
 Frc consts  --      0.3586                 0.3915                 0.6946
 IR Inten    --     21.2184                 0.3747                 1.2213

                     22                     23                     24
                      A                      A                      A
 Frequencies --    222.8554               229.3139               250.7710
 Red. masses --     26.9768                21.9313                22.0079
 Frc consts  --      0.7894                 0.6795                 0.8154
 IR Inten    --      5.2642                 1.6865                 8.5641

                     25                     26                     27
                      A                      A                      A
 Frequencies --    253.4820               267.0713               273.1165
 Red. masses --     34.6304                30.4391                31.4387
 Frc consts  --      1.3110                 1.2792                 1.3817
 IR Inten    --      3.0920                 0.2199                 2.8403

                     28                     29                     30
                      A                      A                      A
 Frequencies --    281.5020               286.0121               297.5196
 Red. masses --     21.5319                20.4156                 1.7631
 Frc consts  --      1.0053                 0.9840                 0.0919
 IR Inten    --     28.2367                 8.4047                17.6371

                     31                     32                     33
                      A                      A                      A
 Frequencies --    315.1657               335.1712               341.8053
 Red. masses --     32.8101                26.2678                15.4277
 Frc consts  --      1.9202                 1.7386                 1.0620
 IR Inten    --      3.5842                11.3039                27.6107

                     34                     35                     36
                      A                      A                      A
 Frequencies --    348.4716               354.1655               367.8050
 Red. masses --     23.6632                15.0217                 7.2488
 Frc consts  --      1.6930                 1.1101                 0.5778
 IR Inten    --      4.0860                19.8112                62.6622

                     37                     38                     39
                      A                      A                      A
 Frequencies --    405.3248               407.1085               408.7686
 Red. masses --      6.9379                 2.5534                 2.0926
 Frc consts  --      0.6716                 0.2493                 0.2060
 IR Inten    --      8.7322                11.9665                22.3271

                     40                     41                     42
                      A                      A                      A
 Frequencies --    414.7862               427.1972               430.7419
 Red. masses --     11.4591                 1.5101                10.6149
 Frc consts  --      1.1616                 0.1624                 1.1604
 IR Inten    --     27.9084                 9.6218                22.8247

                     43                     44                     45
                      A                      A                      A
 Frequencies --    435.4506               446.3841               461.3022
 Red. masses --     14.3996                17.4165                26.5539
 Frc consts  --      1.6087                 2.0447                 3.3293
 IR Inten    --      3.5841                12.9989                36.2049

                     46                     47                     48
                      A                      A                      A
 Frequencies --    519.6907               612.3734               624.6061
 Red. masses --      1.1056                 1.0607                 1.0649
 Frc consts  --      0.1759                 0.2343                 0.2448
 IR Inten    --      7.4955                 2.0350                26.8845

                     49                     50                     51
                      A                      A                      A
 Frequencies --    728.3750               775.5796              2627.3050
 Red. masses --      1.0605                 1.0428                 1.0380
 Frc consts  --      0.3315                 0.3696                 4.2216
 IR Inten    --      2.7341                19.9408                13.5074

                     52                     53                     54
                      A                      A                      A
 Frequencies --   2639.3151              2676.1525              2679.7679
 Red. masses --      1.0381                 1.0385                 1.0382
 Frc consts  --      4.2605                 4.3821                 4.3925
 IR Inten    --     21.2311                 0.4653                 0.6724

 - Thermochemistry -
 -------------------
 Temperature   298.150 Kelvin.  Pressure   1.00000 Atm.
 Atom     1 has atomic number 42 and mass  97.90550

 Molecular mass:   845.25159 amu.
 Principal axes and moments of inertia in atomic units:
                           1         2         3
     Eigenvalues --  9478.31634********************
           X            0.86841  -0.49041   0.07322
           Y           -0.33130  -0.46400   0.82155
           Z            0.36893   0.73770   0.56541
 This molecule is an asymmetric top.
 Rotational symmetry number  1.
 Warning -- assumption of classical behavior for rotation
           may cause significant error
 Rotational temperatures (Kelvin)      0.00914     0.00430     0.00351
 Rotational constants (GHZ):           0.19041     0.08957     0.07310
    1 imaginary frequencies ignored.
 Zero-point vibrational energy     148159.3 (Joules/Mol)
                                   35.41092 (Kcal/Mol)
 Warning -- explicit consideration of  46 degrees of freedom as
           vibrations may cause significant error
 Vibrational temperatures:     34.48    67.61    85.41   113.82   129.21
          (Kelvin)            136.45   148.01   167.92   181.27   184.17
                              202.15   214.39   219.31   220.62   240.40
                              261.38   271.28   286.07   303.36   310.70
                              320.64   329.93   360.80   364.70   384.26
                              392.95   405.02   411.51   428.06   453.45
                              482.24   491.78   501.37   509.57   529.19
                              583.17   585.74   588.13   596.78   614.64
                              619.74   626.52   642.25   663.71   747.72
                              881.07   898.67  1047.97  1115.89  3780.11
                             3797.39  3850.39  3855.59

 Zero-point correction=                           0.056431 (Hartree/Particle)
 Thermal correction to Energy=                    0.082599
 Thermal correction to Enthalpy=                  0.083544
 Thermal correction to Gibbs Free Energy=        -0.001066
 Sum of electronic and zero-point Energies=          -4720.596493
 Sum of electronic and thermal Energies=             -4720.570325
 Sum of electronic and thermal Enthalpies=           -4720.569381
 Sum of electronic and thermal Free Energies=        -4720.653991

                     E (Thermal)             CV                S
                      KCal/Mol        Cal/Mol-Kelvin    Cal/Mol-Kelvin
 Total                   51.832             86.774            178.077
 Electronic               0.000              0.000              0.000
 Translational            0.889              2.981             46.080
 Rotational               0.889              2.981             36.798
 Vibrational             50.054             80.813             95.198
 Vibration     1          0.593              1.985              6.275
 Vibration     2          0.595              1.979              4.940
 Vibration     3          0.597              1.974              4.478
 Vibration     4          0.600              1.963              3.913
 Vibration     5          0.602              1.956              3.664
 Vibration     6          0.603              1.953              3.558
 Vibration     7          0.605              1.947              3.399
 Vibration     8          0.608              1.936              3.154
 Vibration     9          0.611              1.927              3.006
 Vibration    10          0.611              1.925              2.976
 Vibration    11          0.615              1.913              2.797
 Vibration    12          0.618              1.904              2.685
 Vibration    13          0.619              1.900              2.642
 Vibration    14          0.619              1.899              2.630
 Vibration    15          0.624              1.883              2.468
 Vibration    16          0.630              1.865              2.311
 Vibration    17          0.633              1.856              2.242
 Vibration    18          0.637              1.842              2.144
 Vibration    19          0.643              1.824              2.036
 Vibration    20          0.645              1.817              1.993
 Vibration    21          0.649              1.806              1.936
 Vibration    22          0.652              1.796              1.884
 Vibration    23          0.663              1.761              1.725
 Vibration    24          0.665              1.757              1.706
 Vibration    25          0.672              1.734              1.615
 Vibration    26          0.676              1.723              1.576
 Vibration    27          0.681              1.708              1.525
 Vibration    28          0.684              1.700              1.497
 Vibration    29          0.691              1.678              1.431
 Vibration    30          0.703              1.645              1.335
 Vibration    31          0.716              1.605              1.235
 Vibration    32          0.721              1.592              1.204
 Vibration    33          0.726              1.578              1.173
 Vibration    34          0.730              1.567              1.148
 Vibration    35          0.740              1.538              1.089
 Vibration    36          0.770              1.459              0.943
 Vibration    37          0.772              1.455              0.937
 Vibration    38          0.773              1.451              0.931
 Vibration    39          0.778              1.438              0.910
 Vibration    40          0.789              1.411              0.868
 Vibration    41          0.792              1.403              0.856
 Vibration    42          0.796              1.393              0.841
 Vibration    43          0.806              1.369              0.807
 Vibration    44          0.819              1.336              0.762
 Vibration    45          0.875              1.206              0.611
 Vibration    46          0.972              1.006              0.429

                           ! Non-Optimized Parameters !
 Normal termination of Gaussian 16 at Fri Nov 11 12:44:38 2022.
