 Gaussian 16, Revision C.01,
 Gaussian 16:  ES64L-G16RevC.01  3-Jul-2019

 ---------------------------------------
 # opt freq b3lyp/gen nosymm pseudo=read
 ---------------------------------------

 -------------------
 Title Card Required
 -------------------
 Symbolic Z-matrix:
 Charge =  0 Multiplicity = 1

 SCF Done:  E(RB3LYP) =  -4720.64037993     A.U. after   45 cycles
 SCF Done:  E(RB3LYP) =  -4720.64518059     A.U. after   27 cycles
 SCF Done:  E(RB3LYP) =  -4720.65416547     A.U. after   25 cycles
 SCF Done:  E(RB3LYP) =  -4720.65954225     A.U. after   25 cycles
 SCF Done:  E(RB3LYP) =  -4720.66785090     A.U. after   26 cycles
 SCF Done:  E(RB3LYP) =  -4720.67284588     A.U. after   24 cycles
 SCF Done:  E(RB3LYP) =  -4720.67985975     A.U. after   24 cycles
 SCF Done:  E(RB3LYP) =  -4720.68404684     A.U. after   22 cycles
 SCF Done:  E(RB3LYP) =  -4720.68885568     A.U. after   22 cycles
 SCF Done:  E(RB3LYP) =  -4720.69165324     A.U. after   20 cycles
 SCF Done:  E(RB3LYP) =  -4720.70305984     A.U. after   18 cycles
 SCF Done:  E(RB3LYP) =  -4720.70300360     A.U. after   17 cycles
 SCF Done:  E(RB3LYP) =  -4720.70307406     A.U. after   18 cycles
 SCF Done:  E(RB3LYP) =  -4720.70307302     A.U. after   16 cycles
 SCF Done:  E(RB3LYP) =  -4720.70307947     A.U. after   16 cycles
 SCF Done:  E(RB3LYP) =  -4720.70308053     A.U. after   14 cycles
 SCF Done:  E(RB3LYP) =  -4720.70308103     A.U. after   14 cycles
 SCF Done:  E(RB3LYP) =  -4720.70308129     A.U. after   13 cycles
 SCF Done:  E(RB3LYP) =  -4720.70308143     A.U. after   13 cycles
 Optimization completed.
    -- Stationary point found.
 Normal termination of Gaussian 16 at Fri Nov  4 10:34:48 2022.

 ------------------------------------------------------------------
 #N Geom=AllCheck Guess=TCheck SCRF=Check GenChk RB3LYP/ChkBas Freq
 ------------------------------------------------------------------

 Structure from the checkpoint file:  "/home/chesagar/scratch/Gau-227794.chk"
 -------------------
 Title Card Required
 -------------------
 Charge =  0 Multiplicity = 1

                          Input orientation:
 ---------------------------------------------------------------------
 Center     Atomic      Atomic             Coordinates (Angstroms)
 Number     Number       Type             X           Y           Z
 ---------------------------------------------------------------------
      1         42           0        0.195357    1.564557   11.412801
      2         16           0        1.122808    3.653748   11.823214
      3         16           0       -1.965199    1.668302   12.355727
      4         16           0       -0.218867    1.260588    9.094573
      5         16           0        1.881747    0.021501   11.476704
      6         42           0       -2.041088    2.383205   10.129480
      7         16           0       -3.321677    2.352470    8.065576
      8         16           0       -1.538095    4.686720   10.373732
      9         42           0        0.378107    3.520417    9.450077
     10         16           0        0.101827    4.022262    7.009443
     11          1           0        0.001268    2.814875    6.411263
     12         16           0        2.794423    2.947176    8.945817
     13         42           0        2.951895    2.144189   11.040229
     14         42           0       -2.062885    4.229535    8.095828
     15         16           0        4.093697    3.601858   12.526260
     16          1           0        5.337057    3.071679   12.578538
     17         16           0        4.875918    0.786610   10.958643
     18          1           0        5.857043    1.720891   10.938692
     19         16           0       -3.177448    6.249142    7.855686
     20          1           0       -3.340410    6.793216    9.080482
 ---------------------------------------------------------------------

 SCF Done:  E(RB3LYP) =  -4720.70308143     A.U. after    1 cycles

 Alpha  occ. eigenvalues --  -88.92751 -88.91696 -88.91695 -88.90188 -88.89425
 Alpha  occ. eigenvalues --  -88.89163 -88.87990 -88.87806 -88.87485 -88.86947
 Alpha  occ. eigenvalues --  -88.86800  -8.00467  -7.99301  -7.99279  -7.97778
 Alpha  occ. eigenvalues --   -7.97270  -7.96952  -7.95677  -7.95619  -7.95192
 Alpha  occ. eigenvalues --   -7.94638  -7.94478  -5.96700  -5.96330  -5.96241
 Alpha  occ. eigenvalues --   -5.95304  -5.95280  -5.95262  -5.95230  -5.95228
 Alpha  occ. eigenvalues --   -5.95180  -5.93810  -5.93759  -5.93642  -5.93522
 Alpha  occ. eigenvalues --   -5.93150  -5.92983  -5.92978  -5.92894  -5.92823
 Alpha  occ. eigenvalues --   -5.91691  -5.91678  -5.91647  -5.91603  -5.91563
 Alpha  occ. eigenvalues --   -5.91414  -5.91243  -5.91163  -5.91028  -5.90919
 Alpha  occ. eigenvalues --   -5.90768  -5.90515  -5.90371  -5.90339  -5.90158
 Alpha  occ. eigenvalues --   -2.55250  -2.54870  -2.54734  -2.54454  -2.54311
 Alpha  occ. eigenvalues --   -1.58583  -1.58525  -1.58258  -1.58184  -1.57680
 Alpha  occ. eigenvalues --   -1.57631  -1.57032  -1.56627  -1.56543  -1.56382
 Alpha  occ. eigenvalues --   -1.56321  -1.56183  -1.55859  -1.55713  -1.55253
 Alpha  occ. eigenvalues --   -0.78403  -0.75616  -0.74887  -0.74422  -0.73777
 Alpha  occ. eigenvalues --   -0.72193  -0.71912  -0.71064  -0.70539  -0.70298
 Alpha  occ. eigenvalues --   -0.69405  -0.48356  -0.45579  -0.44516  -0.42553
 Alpha  occ. eigenvalues --   -0.41995  -0.41612  -0.41290  -0.40938  -0.40533
 Alpha  occ. eigenvalues --   -0.39681  -0.39002  -0.38337  -0.37206  -0.36913
 Alpha  occ. eigenvalues --   -0.36567  -0.36306  -0.35562  -0.35209  -0.35103
 Alpha  occ. eigenvalues --   -0.34486  -0.33803  -0.33724  -0.33342  -0.32972
 Alpha  occ. eigenvalues --   -0.32747  -0.32453  -0.31617  -0.30684  -0.30278
 Alpha  occ. eigenvalues --   -0.29554  -0.29160  -0.28421  -0.27737  -0.27459
 Alpha  occ. eigenvalues --   -0.26701  -0.25160  -0.25015  -0.24289  -0.23187
 Alpha virt. eigenvalues --   -0.16132  -0.15731  -0.14402  -0.14001  -0.13541
 Alpha virt. eigenvalues --   -0.12792  -0.12457  -0.11705  -0.11309  -0.11205
 Alpha virt. eigenvalues --   -0.10551  -0.10119  -0.09570  -0.08649  -0.07957

 Mulliken charges:
               1
     1  Mo   0.058265
     2  S    0.120667
     3  S   -0.101878
     4  S    0.247289
     5  S   -0.041092
     6  Mo   0.034490
     7  S   -0.081945
     8  S    0.148512
     9  Mo  -0.292890
    10  S   -0.002620
    11  H    0.143993
    12  S   -0.049969
    13  Mo  -0.234201
    14  Mo  -0.013941
    15  S   -0.021578
    16  H    0.054441
    17  S   -0.008322
    18  H    0.062532
    19  S   -0.123339
    20  H    0.101584
 Sum of Mulliken charges =  -0.00000

 Dipole moment (field-independent basis, Debye):
    X=             -2.1111    Y=              2.2955    Z=             -2.9861  Tot=              4.3178
 Quadrupole moment (field-independent basis, Debye-Ang):
   XX=           -262.2510   YY=           -250.9590   ZZ=           -320.6490
   XY=             -3.7165   XZ=            -23.4350   YZ=             17.0186

  Exact polarizability:     578.493     -95.920     376.159     110.978     -71.955     384.637
 Approx polarizability:    1521.879    -208.139    1123.471     222.896    -243.098    1169.646

                      1                      2                      3
                      A                      A                      A
 Frequencies --     41.4376                50.7780                59.9940
 Red. masses --     16.2539                16.8901                19.5530
 Frc consts  --      0.0164                 0.0257                 0.0415
 IR Inten    --      1.0305                 0.3987                 0.0706

                      4                      5                      6
                      A                      A                      A
 Frequencies --     74.0462                85.0043                96.8018
 Red. masses --     19.2658                22.1566                17.9348
 Frc consts  --      0.0622                 0.0943                 0.0990
 IR Inten    --      0.9619                 0.0294                 0.3473

                      7                      8                      9
                      A                      A                      A
 Frequencies --    101.5653               109.5497               114.3508
 Red. masses --     22.4717                20.0540                25.3435
 Frc consts  --      0.1366                 0.1418                 0.1953
 IR Inten    --      0.1041                 0.0101                 2.3162

                     10                     11                     12
                      A                      A                      A
 Frequencies --    123.1778               129.4591               140.9248
 Red. masses --     17.4861                18.6682                32.2787
 Frc consts  --      0.1563                 0.1843                 0.3777
 IR Inten    --      0.5033                 2.8495                 1.0950

                     13                     14                     15
                      A                      A                      A
 Frequencies --    143.3368               153.9590               156.9785
 Red. masses --     20.9333                27.3779                28.4274
 Frc consts  --      0.2534                 0.3823                 0.4127
 IR Inten    --      0.2772                 1.1706                 3.4014

                     16                     17                     18
                      A                      A                      A
 Frequencies --    169.3386               185.7935               203.6517
 Red. masses --     37.3291                30.0045                25.7344
 Frc consts  --      0.6307                 0.6102                 0.6288
 IR Inten    --      4.1831                 1.7332                 1.1762

                     19                     20                     21
                      A                      A                      A
 Frequencies --    210.1594               219.2967               233.5981
 Red. masses --     17.9638                31.0922                21.5721
 Frc consts  --      0.4675                 0.8810                 0.6936
 IR Inten    --      0.6800                 2.5610                 3.0648

                     22                     23                     24
                      A                      A                      A
 Frequencies --    254.5147               261.9167               272.3155
 Red. masses --     24.6919                25.0908                17.7927
 Frc consts  --      0.9424                 1.0141                 0.7774
 IR Inten    --     10.6392                 1.3630                 7.4905

                     25                     26                     27
                      A                      A                      A
 Frequencies --    276.1596               283.4689               289.6752
 Red. masses --      1.6065                10.7620                24.7928
 Frc consts  --      0.0722                 0.5095                 1.2257
 IR Inten    --     10.0891                11.2893                 3.7494

                     28                     29                     30
                      A                      A                      A
 Frequencies --    293.7776               315.8655               330.9709
 Red. masses --      9.9247                10.9138                12.7073
 Frc consts  --      0.5047                 0.6415                 0.8201
 IR Inten    --     15.1530                 7.8965                 8.5710

                     31                     32                     33
                      A                      A                      A
 Frequencies --    335.3751               343.7244               350.2998
 Red. masses --     33.3971                14.6511                39.5864
 Frc consts  --      2.2132                 1.0199                 2.8620
 IR Inten    --      3.4006                41.6888                 7.6029

                     34                     35                     36
                      A                      A                      A
 Frequencies --    358.5369               369.8847               374.2366
 Red. masses --     20.6904                34.4143                24.2667
 Frc consts  --      1.5671                 2.7741                 2.0024
 IR Inten    --     16.1463                 3.5081                52.8186

                     37                     38                     39
                      A                      A                      A
 Frequencies --    405.8032               414.0747               421.1584
 Red. masses --     12.5244                 1.2652                10.1906
 Frc consts  --      1.2152                 0.1278                 1.0650
 IR Inten    --     15.0897                14.6213                22.9492

                     40                     41                     42
                      A                      A                      A
 Frequencies --    426.9737               431.7457               441.3237
 Red. masses --      5.4051                 1.6085                24.5855
 Frc consts  --      0.5806                 0.1767                 2.8213
 IR Inten    --      8.5408                20.0949                 9.8764

                     43                     44                     45
                      A                      A                      A
 Frequencies --    445.3714               448.7638               455.3516
 Red. masses --     10.0570                17.8192                16.2788
 Frc consts  --      1.1753                 2.1143                 1.9887
 IR Inten    --     10.2198                18.6593                26.4430

                     46                     47                     48
                      A                      A                      A
 Frequencies --    555.5204               590.2463               642.3266
 Red. masses --      1.1065                 1.0901                 1.0611
 Frc consts  --      0.2012                 0.2238                 0.2579
 IR Inten    --     11.7025                 2.1530                16.3828

                     49                     50                     51
                      A                      A                      A
 Frequencies --    730.5107               773.8624              2624.3675
 Red. masses --      1.0593                 1.0433                 1.0381
 Frc consts  --      0.3331                 0.3681                 4.2124
 IR Inten    --      2.3547                18.1623                14.9461

                     52                     53                     54
                      A                      A                      A
 Frequencies --   2640.5958              2652.9811              2663.2803
 Red. masses --      1.0380                 1.0384                 1.0386
 Frc consts  --      4.2644                 4.3061                 4.3406
 IR Inten    --     20.4374                 2.8987                 1.2980

 - Thermochemistry -
 -------------------
 Temperature   298.150 Kelvin.  Pressure   1.00000 Atm.
 Atom     1 has atomic number 42 and mass  97.90550

 Molecular mass:   845.25159 amu.
 Principal axes and moments of inertia in atomic units:
                           1         2         3
     Eigenvalues --  8195.68749********************
           X            0.83797   0.54096  -0.07189
           Y           -0.33073   0.60822   0.72158
           Z            0.43407  -0.58089   0.68859
 This molecule is an asymmetric top.
 Rotational symmetry number  1.
 Warning -- assumption of classical behavior for rotation
           may cause significant error
 Rotational temperatures (Kelvin)      0.01057     0.00388     0.00343
 Rotational constants (GHZ):           0.22021     0.08088     0.07141
 Zero-point vibrational energy     151197.1 (Joules/Mol)
                                   36.13697 (Kcal/Mol)
 Warning -- explicit consideration of  47 degrees of freedom as
           vibrations may cause significant error
 Vibrational temperatures:     59.62    73.06    86.32   106.54   122.30
          (Kelvin)            139.28   146.13   157.62   164.53   177.23
                              186.26   202.76   206.23   221.51   225.86
                              243.64   267.32   293.01   302.37   315.52
                              336.10   366.19   376.84   391.80   397.33
                              407.85   416.78   422.68   454.46   476.19
                              482.53   494.54   504.00   515.85   532.18
                              538.44   583.86   595.76   605.95   614.32
                              621.19   634.97   640.79   645.67   655.15
                              799.27   849.23   924.16  1051.04  1113.42
                             3775.88  3799.23  3817.05  3831.87

 Zero-point correction=                           0.057588 (Hartree/Particle)
 Thermal correction to Energy=                    0.083924
 Thermal correction to Enthalpy=                  0.084868
 Thermal correction to Gibbs Free Energy=         0.000347
 Sum of electronic and zero-point Energies=          -4720.645493
 Sum of electronic and thermal Energies=             -4720.619157
 Sum of electronic and thermal Enthalpies=           -4720.618213
 Sum of electronic and thermal Free Energies=        -4720.702734

                     E (Thermal)             CV                S
                      KCal/Mol        Cal/Mol-Kelvin    Cal/Mol-Kelvin
 Total                   52.663             87.922            177.890
 Electronic               0.000              0.000              0.000
 Translational            0.889              2.981             46.080
 Rotational               0.889              2.981             36.778
 Vibrational             50.886             81.960             95.031
 Vibration     1          0.594              1.981              5.189
 Vibration     2          0.595              1.977              4.787
 Vibration     3          0.597              1.973              4.457
 Vibration     4          0.599              1.966              4.043
 Vibration     5          0.601              1.960              3.772
 Vibration     6          0.603              1.951              3.518
 Vibration     7          0.604              1.948              3.424
 Vibration     8          0.606              1.942              3.277
 Vibration     9          0.607              1.938              3.194
 Vibration    10          0.610              1.930              3.050
 Vibration    11          0.612              1.924              2.954
 Vibration    12          0.615              1.912              2.791
 Vibration    13          0.616              1.910              2.759
 Vibration    14          0.619              1.898              2.623
 Vibration    15          0.621              1.895              2.586
 Vibration    16          0.625              1.880              2.443
 Vibration    17          0.632              1.859              2.269
 Vibration    18          0.639              1.835              2.100
 Vibration    19          0.642              1.825              2.042
 Vibration    20          0.647              1.812              1.965
 Vibration    21          0.654              1.789              1.851
 Vibration    22          0.665              1.755              1.699
 Vibration    23          0.669              1.743              1.649
 Vibration    24          0.675              1.724              1.581
 Vibration    25          0.678              1.717              1.557
 Vibration    26          0.682              1.704              1.513
 Vibration    27          0.686              1.693              1.476
 Vibration    28          0.689              1.685              1.452
 Vibration    29          0.703              1.643              1.331
 Vibration    30          0.713              1.614              1.255
 Vibration    31          0.716              1.605              1.234
 Vibration    32          0.722              1.588              1.195
 Vibration    33          0.727              1.575              1.165
 Vibration    34          0.733              1.558              1.128
 Vibration    35          0.742              1.534              1.080
 Vibration    36          0.745              1.525              1.062
 Vibration    37          0.771              1.458              0.942
 Vibration    38          0.778              1.440              0.912
 Vibration    39          0.784              1.424              0.888
 Vibration    40          0.789              1.412              0.869
 Vibration    41          0.793              1.401              0.853
 Vibration    42          0.801              1.380              0.822
 Vibration    43          0.805              1.371              0.810
 Vibration    44          0.808              1.364              0.800
 Vibration    45          0.814              1.349              0.780
 Vibration    46          0.911              1.128              0.533
 Vibration    47          0.948              1.053              0.467

                           ! Non-Optimized Parameters !
 Normal termination of Gaussian 16 at Fri Nov  4 10:36:50 2022.
