 Gaussian 16, Revision C.01,
 Gaussian 16:  ES64L-G16RevC.01  3-Jul-2019

 ---------------------------------------
 # opt freq b3lyp/gen nosymm pseudo=read
 ---------------------------------------

 -------------------
 Title Card Required
 -------------------
 Symbolic Z-matrix:
 Charge =  0 Multiplicity = 1

 SCF Done:  E(RB3LYP) =  -5120.07893989     A.U. after   28 cycles
 SCF Done:  E(RB3LYP) =  -5120.09651082     A.U. after   20 cycles
 SCF Done:  E(RB3LYP) =  -5120.10984845     A.U. after   20 cycles
 SCF Done:  E(RB3LYP) =  -5120.11241538     A.U. after   20 cycles
 SCF Done:  E(RB3LYP) =  -5120.11311482     A.U. after   18 cycles
 SCF Done:  E(RB3LYP) =  -5120.11355288     A.U. after   18 cycles
 SCF Done:  E(RB3LYP) =  -5120.11368781     A.U. after   17 cycles
 SCF Done:  E(RB3LYP) =  -5120.11377503     A.U. after   17 cycles
 SCF Done:  E(RB3LYP) =  -5120.11389608     A.U. after   17 cycles
 SCF Done:  E(RB3LYP) =  -5120.11396704     A.U. after   17 cycles
 SCF Done:  E(RB3LYP) =  -5120.11399885     A.U. after   16 cycles
 SCF Done:  E(RB3LYP) =  -5120.11403667     A.U. after   17 cycles
 SCF Done:  E(RB3LYP) =  -5120.11404078     A.U. after   15 cycles
 SCF Done:  E(RB3LYP) =  -5120.11404479     A.U. after   14 cycles
 SCF Done:  E(RB3LYP) =  -5120.11404561     A.U. after   14 cycles
 SCF Done:  E(RB3LYP) =  -5120.11404615     A.U. after   13 cycles
 SCF Done:  E(RB3LYP) =  -5120.11404640     A.U. after   13 cycles
 Optimization completed.
    -- Stationary point found.
 Normal termination of Gaussian 16 at Fri Nov  4 10:35:02 2022.

 ------------------------------------------------------------------
 #N Geom=AllCheck Guess=TCheck SCRF=Check GenChk RB3LYP/ChkBas Freq
 ------------------------------------------------------------------

 Structure from the checkpoint file:  "/home/chesagar/scratch/Gau-61514.chk"
 -------------------
 Title Card Required
 -------------------
 Charge =  0 Multiplicity = 1

                          Input orientation:
 ---------------------------------------------------------------------
 Center     Atomic      Atomic             Coordinates (Angstroms)
 Number     Number       Type             X           Y           Z
 ---------------------------------------------------------------------
      1         42           0        0.201534    1.558758   11.418849
      2         16           0        1.123440    3.652043   11.831012
      3         16           0       -1.957463    1.680384   12.357507
      4         16           0       -0.205011    1.262947    9.101752
      5         16           0        1.880140    0.002913   11.482809
      6         42           0       -2.010064    2.425983   10.134948
      7         16           0       -3.249850    2.260170    8.103590
      8         16           0       -1.513003    4.717042   10.285599
      9         42           0        0.401176    3.523051    9.455808
     10         16           0        0.231904    4.047607    7.036339
     11          1           0        0.217481    2.853261    6.406040
     12         16           0        2.845106    2.938267    8.996667
     13         42           0        2.960193    2.124846   11.084338
     14         42           0       -2.038269    4.216327    7.972238
     15         16           0        4.076619    3.569220   12.607762
     16          1           0        5.313148    3.027307   12.690043
     17         16           0        4.884806    0.761227   11.038897
     18          1           0        5.866684    1.694822   11.039769
     19         16           0       -3.157488    6.285967    7.919504
     20          1           0       -3.014855    6.833715    9.144464
     21         16           0       -3.016994    4.260817    5.471579
     22          1           0       -2.605573    3.065336    5.003208
     23          1           0       -2.078792    4.949801    4.787473
 ---------------------------------------------------------------------

 SCF Done:  E(RB3LYP) =  -5120.11404640     A.U. after    2 cycles

 Alpha  occ. eigenvalues --  -88.95245 -88.92240 -88.90766 -88.90490 -88.89390
 Alpha  occ. eigenvalues --  -88.88642 -88.88250 -88.87033 -88.86990 -88.86685
 Alpha  occ. eigenvalues --  -88.86210 -88.86048  -8.02857  -7.99920  -7.98365
 Alpha  occ. eigenvalues --   -7.98094  -7.96976  -7.96385  -7.95970  -7.94847
 Alpha  occ. eigenvalues --   -7.94677  -7.94388  -7.93900  -7.93726  -5.99175
 Alpha  occ. eigenvalues --   -5.98891  -5.98383  -5.96175  -5.95781  -5.95688
 Alpha  occ. eigenvalues --   -5.94350  -5.94326  -5.94289  -5.94134  -5.94038
 Alpha  occ. eigenvalues --   -5.93988  -5.93008  -5.92955  -5.92844  -5.92653
 Alpha  occ. eigenvalues --   -5.92251  -5.92111  -5.92035  -5.91912  -5.91827
 Alpha  occ. eigenvalues --   -5.90904  -5.90832  -5.90677  -5.90652  -5.90642
 Alpha  occ. eigenvalues --   -5.90571  -5.90439  -5.90360  -5.90226  -5.90185
 Alpha  occ. eigenvalues --   -5.90018  -5.89776  -5.89620  -5.89600  -5.89402
 Alpha  occ. eigenvalues --   -2.54199  -2.54113  -2.53988  -2.53631  -2.53321
 Alpha  occ. eigenvalues --   -1.57744  -1.57545  -1.57356  -1.57234  -1.56796
 Alpha  occ. eigenvalues --   -1.56657  -1.56163  -1.55761  -1.55647  -1.55554
 Alpha  occ. eigenvalues --   -1.55464  -1.55317  -1.55009  -1.54824  -1.54314
 Alpha  occ. eigenvalues --   -0.82328  -0.77854  -0.74762  -0.74014  -0.73434
 Alpha  occ. eigenvalues --   -0.72847  -0.71433  -0.70985  -0.70328  -0.69675
 Alpha  occ. eigenvalues --   -0.69480  -0.68544  -0.51928  -0.47990  -0.46719
 Alpha  occ. eigenvalues --   -0.43824  -0.42790  -0.41702  -0.41282  -0.40659
 Alpha  occ. eigenvalues --   -0.40458  -0.40017  -0.39677  -0.38805  -0.38198
 Alpha  occ. eigenvalues --   -0.37746  -0.36583  -0.36045  -0.35953  -0.35668
 Alpha  occ. eigenvalues --   -0.35460  -0.34623  -0.34418  -0.34135  -0.33129
 Alpha  occ. eigenvalues --   -0.32866  -0.32636  -0.32386  -0.32156  -0.31816
 Alpha  occ. eigenvalues --   -0.31627  -0.30197  -0.29699  -0.29421  -0.28651
 Alpha  occ. eigenvalues --   -0.28312  -0.27613  -0.26780  -0.26671  -0.25868
 Alpha  occ. eigenvalues --   -0.24392  -0.24152  -0.23571  -0.22333
 Alpha virt. eigenvalues --   -0.15297  -0.14520  -0.13433  -0.12764  -0.12446
 Alpha virt. eigenvalues --   -0.11935  -0.11244  -0.10995  -0.10672  -0.09755
 Alpha virt. eigenvalues --   -0.09539  -0.08829  -0.08370  -0.07602  -0.07378

 Mulliken charges:
               1
     1  Mo   0.065313
     2  S    0.123178
     3  S   -0.116765
     4  S    0.240597
     5  S   -0.046884
     6  Mo   0.049616
     7  S   -0.087163
     8  S    0.106154
     9  Mo  -0.278213
    10  S   -0.010603
    11  H    0.131347
    12  S   -0.066566
    13  Mo  -0.230502
    14  Mo  -0.292875
    15  S   -0.028509
    16  H    0.052839
    17  S   -0.015784
    18  H    0.060757
    19  S   -0.081337
    20  H    0.093953
    21  S    0.067347
    22  H    0.132831
    23  H    0.131269
 Sum of Mulliken charges =  -0.00000

 Dipole moment (field-independent basis, Debye):
    X=             -2.7858    Y=              2.7536    Z=             -7.2291  Tot=              8.2221
 Quadrupole moment (field-independent basis, Debye-Ang):
   XX=           -283.1409   YY=           -265.0834   ZZ=           -395.4983
   XY=             -3.6600   XZ=            -22.9973   YZ=              5.8620

  Exact polarizability:     590.410     -96.668     383.670     135.493     -78.392     443.074
 Approx polarizability:    1501.697    -196.270    1106.131     226.655    -213.021    1210.619

                      1                      2                      3
                      A                      A                      A
 Frequencies --     39.4117                45.0525                54.7768
 Red. masses --     15.2742                15.2875                14.6587
 Frc consts  --      0.0140                 0.0183                 0.0259
 IR Inten    --      1.2086                 0.2550                 0.2752

                      4                      5                      6
                      A                      A                      A
 Frequencies --     62.7335                72.6696                92.3993
 Red. masses --     14.2944                14.1086                 2.6771
 Frc consts  --      0.0331                 0.0439                 0.0135
 IR Inten    --      0.2863                 0.5416                 4.8708

                      7                      8                      9
                      A                      A                      A
 Frequencies --     94.2410                96.8987               102.0284
 Red. masses --     12.6329                 1.8466                22.5197
 Frc consts  --      0.0661                 0.0102                 0.1381
 IR Inten    --      0.8631                 5.9082                 0.3087

                     10                     11                     12
                      A                      A                      A
 Frequencies --    109.5440               111.5206               121.2616
 Red. masses --     22.1333                16.7802                15.8019
 Frc consts  --      0.1565                 0.1230                 0.1369
 IR Inten    --      0.3781                 1.5726                 2.0582

                     13                     14                     15
                      A                      A                      A
 Frequencies --    125.0877               138.3611               141.7905
 Red. masses --     10.2102                24.8163                29.0317
 Frc consts  --      0.0941                 0.2799                 0.3439
 IR Inten    --      1.8782                 3.7891                 0.2362

                     16                     17                     18
                      A                      A                      A
 Frequencies --    149.1668               156.5639               166.0910
 Red. masses --     23.3263                28.1467                16.0645
 Frc consts  --      0.3058                 0.4065                 0.2611
 IR Inten    --      3.8724                 1.5229                 0.3475

                     19                     20                     21
                      A                      A                      A
 Frequencies --    172.7386               179.1381               189.6583
 Red. masses --     31.2748                19.8065                29.8111
 Frc consts  --      0.5498                 0.3745                 0.6318
 IR Inten    --      1.9520                 0.7165                 0.7101

                     22                     23                     24
                      A                      A                      A
 Frequencies --    205.8904               210.4273               225.2463
 Red. masses --     19.8288                21.9790                36.4099
 Frc consts  --      0.4952                 0.5734                 1.0884
 IR Inten    --      1.1967                 0.7946                 4.3774

                     25                     26                     27
                      A                      A                      A
 Frequencies --    233.0753               258.9561               270.1202
 Red. masses --     25.7018                33.7954                18.3400
 Frc consts  --      0.8226                 1.3352                 0.7884
 IR Inten    --      3.6087                14.3158                 0.5996

                     28                     29                     30
                      A                      A                      A
 Frequencies --    275.9712               289.0693               291.3556
 Red. masses --     25.9548                26.0428                30.5735
 Frc consts  --      1.1646                 1.2822                 1.5291
 IR Inten    --      8.7328                10.6803                12.0996

                     31                     32                     33
                      A                      A                      A
 Frequencies --    300.4984               314.3859               317.3629
 Red. masses --     29.6514                25.8916                12.9113
 Frc consts  --      1.5775                 1.5078                 0.7662
 IR Inten    --      1.8403                 8.8296                 0.7078

                     34                     35                     36
                      A                      A                      A
 Frequencies --    328.9903               342.1560               350.5127
 Red. masses --     34.2333                15.4003                36.3477
 Frc consts  --      2.1831                 1.0623                 2.6311
 IR Inten    --      1.3312                38.9866                 6.4710

                     37                     38                     39
                      A                      A                      A
 Frequencies --    357.2174               362.1666               370.0076
 Red. masses --     21.1901                21.9438                25.9799
 Frc consts  --      1.5931                 1.6958                 2.0956
 IR Inten    --     18.7403                33.0799                 0.6290

                     40                     41                     42
                      A                      A                      A
 Frequencies --    391.9233               405.5292               414.0050
 Red. masses --      1.3716                10.3045                 1.2862
 Frc consts  --      0.1241                 0.9984                 0.1299
 IR Inten    --      6.1824                19.2915                 9.2769

                     43                     44                     45
                      A                      A                      A
 Frequencies --    417.4705               427.6544               429.0079
 Red. masses --      4.6588                10.6700                 1.3539
 Frc consts  --      0.4784                 1.1497                 0.1468
 IR Inten    --     27.7711                30.4584                 7.4879

                     46                     47                     48
                      A                      A                      A
 Frequencies --    437.2630               444.0435               448.1235
 Red. masses --     12.4445                13.9354                11.9174
 Frc consts  --      1.4019                 1.6189                 1.4100
 IR Inten    --      3.8863                10.5295                20.5711

                     49                     50                     51
                      A                      A                      A
 Frequencies --    455.4151               492.0341               541.9294
 Red. masses --     16.3407                 1.1030                 1.1395
 Frc consts  --      1.9968                 0.1573                 0.1972
 IR Inten    --     27.3741                 7.5201                12.4320

                     52                     53                     54
                      A                      A                      A
 Frequencies --    562.0927               595.7394               718.6663
 Red. masses --      1.0571                 1.0921                 1.0452
 Frc consts  --      0.1968                 0.2284                 0.3180
 IR Inten    --      4.5413                 2.1728                13.3396

                     55                     56                     57
                      A                      A                      A
 Frequencies --    730.0990               772.3146              1216.8432
 Red. masses --      1.0595                 1.0433                 1.0385
 Frc consts  --      0.3327                 0.3666                 0.9060
 IR Inten    --      2.2877                17.4217                 8.4531

                     58                     59                     60
                      A                      A                      A
 Frequencies --   2624.4883              2640.6299              2654.0353
 Red. masses --      1.0381                 1.0380                 1.0385
 Frc consts  --      4.2129                 4.2644                 4.3099
 IR Inten    --     16.2797                23.0926                 3.1373

                     61                     62                     63
                      A                      A                      A
 Frequencies --   2666.6672              2676.4339              2700.5083
 Red. masses --      1.0388                 1.0358                 1.0399
 Frc consts  --      4.3521                 4.3716                 4.4680
 IR Inten    --      1.3923                 0.9592                 1.2315

 - Thermochemistry -
 -------------------
 Temperature   298.150 Kelvin.  Pressure   1.00000 Atm.
 Atom     1 has atomic number 42 and mass  97.90550

 Molecular mass:   879.23931 amu.
 Principal axes and moments of inertia in atomic units:
                           1         2         3
     Eigenvalues --  8903.51518********************
           X            0.78702   0.61448  -0.05499
           Y           -0.33156   0.49645   0.80225
           Z            0.52026  -0.61315   0.59445
 This molecule is an asymmetric top.
 Rotational symmetry number  1.
 Warning -- assumption of classical behavior for rotation
           may cause significant error
 Rotational temperatures (Kelvin)      0.00973     0.00334     0.00300
 Rotational constants (GHZ):           0.20270     0.06958     0.06241
 Zero-point vibrational energy     200897.6 (Joules/Mol)
                                   48.01569 (Kcal/Mol)
 Warning -- explicit consideration of  53 degrees of freedom as
           vibrations may cause significant error
 Vibrational temperatures:     56.70    64.82    78.81    90.26   104.56
          (Kelvin)            132.94   135.59   139.42   146.80   157.61
                              160.45   174.47   179.97   199.07   204.00
                              214.62   225.26   238.97   248.53   257.74
                              272.88   296.23   302.76   324.08   335.34
                              372.58   388.64   397.06   415.91   419.20
                              432.35   452.33   456.61   473.34   492.29
                              504.31   513.96   521.08   532.36   563.89
                              583.47   595.66   600.65   615.30   617.25
                              629.12   638.88   644.75   655.24   707.93
                              779.72   808.73   857.14  1034.00  1050.45
                             1111.19  1750.77  3776.05  3799.28  3818.56
                             3836.74  3850.79  3885.43

 Zero-point correction=                           0.076518 (Hartree/Particle)
 Thermal correction to Energy=                    0.105921
 Thermal correction to Enthalpy=                  0.106865
 Thermal correction to Gibbs Free Energy=         0.015523
 Sum of electronic and zero-point Energies=          -5120.037529
 Sum of electronic and thermal Energies=             -5120.008125
 Sum of electronic and thermal Enthalpies=           -5120.007181
 Sum of electronic and thermal Free Energies=        -5120.098524

                     E (Thermal)             CV                S
                      KCal/Mol        Cal/Mol-Kelvin    Cal/Mol-Kelvin
 Total                   66.467             97.860            192.247
 Electronic               0.000              0.000              0.000
 Translational            0.889              2.981             46.198
 Rotational               0.889              2.981             37.144
 Vibrational             64.689             91.899            108.905
 Vibration     1          0.594              1.981              5.288
 Vibration     2          0.595              1.979              5.024
 Vibration     3          0.596              1.976              4.637
 Vibration     4          0.597              1.972              4.369
 Vibration     5          0.599              1.967              4.080
 Vibration     6          0.602              1.955              3.609
 Vibration     7          0.603              1.953              3.570
 Vibration     8          0.603              1.951              3.516
 Vibration     9          0.604              1.948              3.415
 Vibration    10          0.606              1.942              3.277
 Vibration    11          0.607              1.940              3.242
 Vibration    12          0.609              1.931              3.080
 Vibration    13          0.610              1.928              3.020
 Vibration    14          0.614              1.915              2.826
 Vibration    15          0.615              1.911              2.780
 Vibration    16          0.618              1.904              2.683
 Vibration    17          0.620              1.895              2.591
 Vibration    18          0.624              1.884              2.479
 Vibration    19          0.626              1.876              2.405
 Vibration    20          0.629              1.868              2.337
 Vibration    21          0.633              1.854              2.231
 Vibration    22          0.640              1.831              2.080
 Vibration    23          0.643              1.825              2.040
 Vibration    24          0.650              1.803              1.917
 Vibration    25          0.654              1.790              1.855
 Vibration    26          0.668              1.748              1.669
 Vibration    27          0.674              1.728              1.595
 Vibration    28          0.678              1.718              1.559
 Vibration    29          0.686              1.694              1.479
 Vibration    30          0.687              1.690              1.466
 Vibration    31          0.693              1.673              1.414
 Vibration    32          0.702              1.646              1.339
 Vibration    33          0.704              1.640              1.324
 Vibration    34          0.712              1.618              1.265
 Vibration    35          0.721              1.591              1.202
 Vibration    36          0.727              1.574              1.164
 Vibration    37          0.732              1.560              1.134
 Vibration    38          0.736              1.550              1.113
 Vibration    39          0.742              1.534              1.080
 Vibration    40          0.759              1.487              0.993
 Vibration    41          0.771              1.458              0.943
 Vibration    42          0.778              1.440              0.913
 Vibration    43          0.781              1.432              0.901
 Vibration    44          0.789              1.410              0.866
 Vibration    45          0.790              1.407              0.862
 Vibration    46          0.798              1.389              0.835
 Vibration    47          0.804              1.374              0.814
 Vibration    48          0.807              1.365              0.801
 Vibration    49          0.814              1.349              0.780
 Vibration    50          0.848              1.268              0.678
 Vibration    51          0.897              1.157              0.561
 Vibration    52          0.918              1.113              0.520
 Vibration    53          0.954              1.041              0.457

                           ! Non-Optimized Parameters !
 Normal termination of Gaussian 16 at Fri Nov  4 10:37:37 2022.
