 Gaussian 16, Revision C.01,
 Gaussian 16:  ES64L-G16RevC.01  3-Jul-2019

 -----------------------------------------------------------
 # opt=(calcfc,ts,noeigen) freq b3lyp/gen nosymm pseudo=read
 -----------------------------------------------------------

 -------------------
 Title Card Required
 -------------------
 Symbolic Z-matrix:
 Charge =  0 Multiplicity = 1

 SCF Done:  E(RB3LYP) =  -5120.00390894     A.U. after   35 cycles
 SCF Done:  E(RB3LYP) =  -5120.01695634     A.U. after   23 cycles
 SCF Done:  E(RB3LYP) =  -5120.02810045     A.U. after   21 cycles
 SCF Done:  E(RB3LYP) =  -5120.04266181     A.U. after   20 cycles
 SCF Done:  E(RB3LYP) =  -5120.05088896     A.U. after   20 cycles
 SCF Done:  E(RB3LYP) =  -5120.05779477     A.U. after   20 cycles
 SCF Done:  E(RB3LYP) =  -5120.05811211     A.U. after   21 cycles
 SCF Done:  E(RB3LYP) =  -5120.05792126     A.U. after   21 cycles
 SCF Done:  E(RB3LYP) =  -5120.05736185     A.U. after   19 cycles
 SCF Done:  E(RB3LYP) =  -5120.05786103     A.U. after   20 cycles
 SCF Done:  E(RB3LYP) =  -5120.05913774     A.U. after   20 cycles
 SCF Done:  E(RB3LYP) =  -5120.05932011     A.U. after   18 cycles
 SCF Done:  E(RB3LYP) =  -5120.05934005     A.U. after   17 cycles
 SCF Done:  E(RB3LYP) =  -5120.05934280     A.U. after   16 cycles
 SCF Done:  E(RB3LYP) =  -5120.05934727     A.U. after   15 cycles
 SCF Done:  E(RB3LYP) =  -5120.05934862     A.U. after   16 cycles
 SCF Done:  E(RB3LYP) =  -5120.05934935     A.U. after   14 cycles
 SCF Done:  E(RB3LYP) =  -5120.05934958     A.U. after   14 cycles
 SCF Done:  E(RB3LYP) =  -5120.05934969     A.U. after   14 cycles
 Optimization completed.
    -- Stationary point found.
 Normal termination of Gaussian 16 at Fri Nov  4 11:06:20 2022.

 ------------------------------------------------------------------
 #N Geom=AllCheck Guess=TCheck SCRF=Check GenChk RB3LYP/ChkBas Freq
 ------------------------------------------------------------------

 Structure from the checkpoint file:  "/home/chesagar/scratch/Gau-78415.chk"
 -------------------
 Title Card Required
 -------------------
 Charge =  0 Multiplicity = 1

                          Input orientation:
 ---------------------------------------------------------------------
 Center     Atomic      Atomic             Coordinates (Angstroms)
 Number     Number       Type             X           Y           Z
 ---------------------------------------------------------------------
      1         42           0        0.255342    1.634851   11.514697
      2         16           0        1.245358    3.743824   11.787224
      3         16           0       -1.880127    1.985669   12.444017
      4         16           0       -0.199244    1.178044    9.224809
      5         16           0        1.851992    0.009488   11.738829
      6         42           0       -1.966798    2.487877   10.133014
      7         16           0       -3.346240    2.099091    8.304990
      8         16           0       -1.442139    4.785481   10.147885
      9         42           0        0.458556    3.422277    9.507931
     10         16           0       -0.029936    4.044442    7.101029
     11          1           0       -0.351545    3.582461    5.488803
     12         16           0        2.853753    2.755225    9.005519
     13         42           0        3.008527    2.048253   11.142422
     14         42           0       -2.178714    4.116927    7.880185
     15         16           0        4.177261    3.499559   12.612314
     16          1           0        5.374132    2.886656   12.755589
     17         16           0        4.870741    0.623099   11.092684
     18          1           0        5.880739    1.525468   11.046009
     19         16           0       -3.370825    6.145607    7.773932
     20          1           0       -3.172139    6.720209    8.979504
     21         16           0       -2.839558    3.794381    5.544112
     22          1           0       -1.236904    3.566381    5.088849
     23          1           0       -2.807365    5.056541    5.055850
 ---------------------------------------------------------------------

 SCF Done:  E(RB3LYP) =  -5120.05934969     A.U. after    1 cycles

 Alpha  occ. eigenvalues --  -88.92302 -88.92136 -88.91280 -88.91096 -88.91082
 Alpha  occ. eigenvalues --  -88.88547 -88.88256 -88.88165 -88.88136 -88.88110
 Alpha  occ. eigenvalues --  -88.88052 -88.87798  -7.99883  -7.99757  -7.98892
 Alpha  occ. eigenvalues --   -7.98769  -7.98714  -7.96371  -7.95968  -7.95889
 Alpha  occ. eigenvalues --   -7.95842  -7.95784  -7.95768  -7.95484  -5.96073
 Alpha  occ. eigenvalues --   -5.95942  -5.95752  -5.95717  -5.95660  -5.95509
 Alpha  occ. eigenvalues --   -5.95015  -5.94911  -5.94854  -5.94778  -5.94740
 Alpha  occ. eigenvalues --   -5.94663  -5.94656  -5.94611  -5.94513  -5.92403
 Alpha  occ. eigenvalues --   -5.92389  -5.92155  -5.92111  -5.92053  -5.92022
 Alpha  occ. eigenvalues --   -5.91943  -5.91941  -5.91870  -5.91795  -5.91770
 Alpha  occ. eigenvalues --   -5.91767  -5.91758  -5.91711  -5.91708  -5.91663
 Alpha  occ. eigenvalues --   -5.91650  -5.91561  -5.91493  -5.91376  -5.91169
 Alpha  occ. eigenvalues --   -2.57001  -2.56014  -2.55316  -2.54970  -2.54645
 Alpha  occ. eigenvalues --   -1.60373  -1.59763  -1.59339  -1.58867  -1.58665
 Alpha  occ. eigenvalues --   -1.57895  -1.57711  -1.57494  -1.57409  -1.57214
 Alpha  occ. eigenvalues --   -1.57054  -1.56799  -1.56563  -1.56264  -1.55688
 Alpha  occ. eigenvalues --   -0.78399  -0.76081  -0.75010  -0.74421  -0.73935
 Alpha  occ. eigenvalues --   -0.73323  -0.72892  -0.72141  -0.71405  -0.71117
 Alpha  occ. eigenvalues --   -0.70593  -0.69695  -0.52169  -0.45942  -0.45338
 Alpha  occ. eigenvalues --   -0.44049  -0.43273  -0.42434  -0.42057  -0.41678
 Alpha  occ. eigenvalues --   -0.41279  -0.40696  -0.39910  -0.39315  -0.38654
 Alpha  occ. eigenvalues --   -0.37952  -0.37771  -0.37012  -0.36734  -0.36268
 Alpha  occ. eigenvalues --   -0.35708  -0.35256  -0.35001  -0.34403  -0.34087
 Alpha  occ. eigenvalues --   -0.34049  -0.33690  -0.33351  -0.32653  -0.32277
 Alpha  occ. eigenvalues --   -0.31727  -0.31155  -0.30599  -0.30230  -0.29986
 Alpha  occ. eigenvalues --   -0.29041  -0.28566  -0.28296  -0.27688  -0.27283
 Alpha  occ. eigenvalues --   -0.26092  -0.25823  -0.25097  -0.23415
 Alpha virt. eigenvalues --   -0.18085  -0.15804  -0.15109  -0.14512  -0.14142
 Alpha virt. eigenvalues --   -0.12967  -0.12811  -0.12210  -0.11745  -0.11008
 Alpha virt. eigenvalues --   -0.10799  -0.10541  -0.09972  -0.09229  -0.08668

 Mulliken charges:
               1
     1  Mo   0.024124
     2  S    0.167841
     3  S   -0.079375
     4  S    0.301771
     5  S   -0.032908
     6  Mo  -0.014176
     7  S   -0.041837
     8  S    0.151953
     9  Mo  -0.292027
    10  S   -0.010876
    11  H    0.039067
    12  S   -0.022097
    13  Mo  -0.253482
    14  Mo  -0.266495
    15  S   -0.014826
    16  H    0.060069
    17  S    0.004297
    18  H    0.069105
    19  S   -0.076295
    20  H    0.084394
    21  S    0.067398
    22  H    0.007717
    23  H    0.126663
 Sum of Mulliken charges =  -0.00000

 Dipole moment (field-independent basis, Debye):
    X=              0.2115    Y=              2.0247    Z=             -2.5005  Tot=              3.2244
 Quadrupole moment (field-independent basis, Debye-Ang):
   XX=           -276.7469   YY=           -268.0359   ZZ=           -319.9112
   XY=              1.7093   XZ=              3.4581   YZ=              9.9072

  Exact polarizability:     617.602    -106.857     376.024     164.762     -83.357     498.356
 Approx polarizability:    1643.168    -222.764    1090.795     296.861    -218.537    1497.260

 ******    1 imaginary frequencies (negative Signs) ******

                      1                      2                      3
                      A                      A                      A
 Frequencies --  -1312.5185                40.4999                48.8342
 Red. masses --      1.0712                16.5810                14.1319
 Frc consts  --      1.0873                 0.0160                 0.0199
 IR Inten    --   2521.7838                 0.6268                 0.1939

                      4                      5                      6
                      A                      A                      A
 Frequencies --     53.1279                65.6855                77.9349
 Red. masses --     17.3821                18.6501                19.1430
 Frc consts  --      0.0289                 0.0474                 0.0685
 IR Inten    --      0.1608                 2.1514                 0.0505

                      7                      8                      9
                      A                      A                      A
 Frequencies --     91.8832               100.8701               103.5826
 Red. masses --     35.1865                22.4224                26.0920
 Frc consts  --      0.1750                 0.1344                 0.1649
 IR Inten    --      3.3773                 0.6221                 0.8913

                     10                     11                     12
                      A                      A                      A
 Frequencies --    107.1630               109.4000               120.7723
 Red. masses --     21.5312                21.3198                22.0025
 Frc consts  --      0.1457                 0.1503                 0.1891
 IR Inten    --      0.7342                 0.4256                 0.7608

                     13                     14                     15
                      A                      A                      A
 Frequencies --    134.6988               139.7359               145.6217
 Red. masses --     15.9882                15.5451                29.3663
 Frc consts  --      0.1709                 0.1788                 0.3669
 IR Inten    --      1.7250                 0.5161                 0.7214

                     16                     17                     18
                      A                      A                      A
 Frequencies --    153.5856               162.4689               169.0843
 Red. masses --     26.9253                14.7406                18.9601
 Frc consts  --      0.3742                 0.2292                 0.3194
 IR Inten    --      1.5336                 1.2751                 0.9633

                     19                     20                     21
                      A                      A                      A
 Frequencies --    171.9473               186.6673               199.1180
 Red. masses --     17.5611                27.1937                28.8377
 Frc consts  --      0.3059                 0.5583                 0.6736
 IR Inten    --      0.1263                 8.8333                 3.2966

                     22                     23                     24
                      A                      A                      A
 Frequencies --    204.1920               215.3597               226.7576
 Red. masses --     13.8428                28.5695                24.9398
 Frc consts  --      0.3401                 0.7807                 0.7556
 IR Inten    --      1.0828                 2.8447                19.2424

                     25                     26                     27
                      A                      A                      A
 Frequencies --    249.5132               266.6372               271.0858
 Red. masses --     29.8638                25.0755                29.5816
 Frc consts  --      1.0954                 1.0504                 1.2808
 IR Inten    --     16.1475                 1.2562                 3.6306

                     28                     29                     30
                      A                      A                      A
 Frequencies --    274.2795               278.7272               288.4857
 Red. masses --     33.3424                19.3118                28.0747
 Frc consts  --      1.4779                 0.8840                 1.3766
 IR Inten    --     11.6469                 5.6235                42.8485

                     31                     32                     33
                      A                      A                      A
 Frequencies --    300.4254               312.3961               317.0526
 Red. masses --     19.1826                 3.2723                 2.2884
 Frc consts  --      1.0201                 0.1882                 0.1355
 IR Inten    --      0.3090                 0.7538                 3.9831

                     34                     35                     36
                      A                      A                      A
 Frequencies --    345.3868               346.6598               351.7741
 Red. masses --     27.7012                11.5680                 8.9022
 Frc consts  --      1.9470                 0.8191                 0.6490
 IR Inten    --      0.0726                82.1013                33.0564

                     37                     38                     39
                      A                      A                      A
 Frequencies --    355.8458               362.1746               367.5617
 Red. masses --     15.8605                23.6416                25.0111
 Frc consts  --      1.1833                 1.8271                 1.9909
 IR Inten    --     26.6588                10.3193                 6.4160

                     40                     41                     42
                      A                      A                      A
 Frequencies --    397.3824               400.8992               405.2654
 Red. masses --      1.5313                14.5546                 2.1033
 Frc consts  --      0.1425                 1.3782                 0.2035
 IR Inten    --      0.8868                 5.6972                28.1458

                     43                     44                     45
                      A                      A                      A
 Frequencies --    407.8856               414.1979               417.1144
 Red. masses --      4.1078                 2.5783                 7.2060
 Frc consts  --      0.4027                 0.2606                 0.7387
 IR Inten    --     13.5524                22.7251                19.9157

                     46                     47                     48
                      A                      A                      A
 Frequencies --    424.0921               429.6042               443.1747
 Red. masses --      2.8639                 2.2006                19.2416
 Frc consts  --      0.3035                 0.2393                 2.2266
 IR Inten    --      3.6812                10.2101                13.3179

                     49                     50                     51
                      A                      A                      A
 Frequencies --    449.7651               458.4556               628.9326
 Red. masses --      9.7666                24.1891                 1.0842
 Frc consts  --      1.1640                 2.9955                 0.2527
 IR Inten    --     12.9868                19.8388                 3.5652

                     52                     53                     54
                      A                      A                      A
 Frequencies --    701.9481               725.6191               737.4784
 Red. masses --      1.0340                 1.0618                 1.0465
 Frc consts  --      0.3002                 0.3294                 0.3353
 IR Inten    --      4.5530                 3.5128                 9.8420

                     55                     56                     57
                      A                      A                      A
 Frequencies --    766.9112              1001.7147              1103.3363
 Red. masses --      1.0446                 1.0510                 1.0154
 Frc consts  --      0.3620                 0.6214                 0.7283
 IR Inten    --     18.8314                56.9945                22.7165

                     58                     59                     60
                      A                      A                      A
 Frequencies --   1177.5293              1487.4120              2625.3951
 Red. masses --      1.0180                 1.0263                 1.0381
 Frc consts  --      0.8316                 1.3377                 4.2157
 IR Inten    --     20.5431               120.6834                 8.8224

                     61                     62                     63
                      A                      A                      A
 Frequencies --   2645.9440              2646.6443              2661.6118
 Red. masses --      1.0380                 1.0382                 1.0386
 Frc consts  --      4.2817                 4.2848                 4.3351
 IR Inten    --     16.5947                 0.5002                 3.1843

 - Thermochemistry -
 -------------------
 Temperature   298.150 Kelvin.  Pressure   1.00000 Atm.
 Atom     1 has atomic number 42 and mass  97.90550

 Molecular mass:   879.23931 amu.
 Principal axes and moments of inertia in atomic units:
                           1         2         3
     Eigenvalues --  8557.99480********************
           X            0.79082  -0.61159  -0.02364
           Y           -0.31708  -0.44242   0.83888
           Z            0.52351   0.65591   0.54380
 This molecule is an asymmetric top.
 Rotational symmetry number  1.
 Warning -- assumption of classical behavior for rotation
           may cause significant error
 Rotational temperatures (Kelvin)      0.01012     0.00325     0.00296
 Rotational constants (GHZ):           0.21088     0.06766     0.06163
    1 imaginary frequencies ignored.
 Zero-point vibrational energy     187067.9 (Joules/Mol)
                                   44.71030 (Kcal/Mol)
 Warning -- explicit consideration of  49 degrees of freedom as
           vibrations may cause significant error
 Vibrational temperatures:     58.27    70.26    76.44    94.51   112.13
          (Kelvin)            132.20   145.13   149.03   154.18   157.40
                              173.76   193.80   201.05   209.52   220.98
                              233.76   243.27   247.39   268.57   286.49
                              293.79   309.85   326.25   358.99   383.63
                              390.03   394.63   401.03   415.07   432.25
                              449.47   456.17   496.93   498.77   506.12
                              511.98   521.09   528.84   571.74   576.80
                              583.09   586.86   595.94   600.13   610.17
                              618.10   637.63   647.11   659.62   904.89
                             1009.95  1044.00  1061.07  1103.41  1441.24
                             1587.45  1694.20  2140.05  3777.36  3806.92
                             3807.93  3829.47

 Zero-point correction=                           0.071250 (Hartree/Particle)
 Thermal correction to Energy=                    0.099651
 Thermal correction to Enthalpy=                  0.100595
 Thermal correction to Gibbs Free Energy=         0.011628
 Sum of electronic and zero-point Energies=          -5119.988099
 Sum of electronic and thermal Energies=             -5119.959699
 Sum of electronic and thermal Enthalpies=           -5119.958755
 Sum of electronic and thermal Free Energies=        -5120.047721

                     E (Thermal)             CV                S
                      KCal/Mol        Cal/Mol-Kelvin    Cal/Mol-Kelvin
 Total                   62.532             95.271            187.246
 Electronic               0.000              0.000              0.000
 Translational            0.889              2.981             46.198
 Rotational               0.889              2.981             37.145
 Vibrational             60.754             89.309            103.903
 Vibration     1          0.594              1.981              5.234
 Vibration     2          0.595              1.978              4.864
 Vibration     3          0.596              1.976              4.697
 Vibration     4          0.597              1.971              4.279
 Vibration     5          0.599              1.964              3.942
 Vibration     6          0.602              1.955              3.620
 Vibration     7          0.604              1.948              3.437
 Vibration     8          0.605              1.946              3.386
 Vibration     9          0.606              1.944              3.320
 Vibration    10          0.606              1.942              3.280
 Vibration    11          0.609              1.932              3.088
 Vibration    12          0.613              1.919              2.878
 Vibration    13          0.615              1.914              2.807
 Vibration    14          0.617              1.907              2.729
 Vibration    15          0.619              1.899              2.627
 Vibration    16          0.623              1.888              2.521
 Vibration    17          0.625              1.881              2.446
 Vibration    18          0.626              1.877              2.414
 Vibration    19          0.632              1.858              2.261
 Vibration    20          0.637              1.841              2.141
 Vibration    21          0.640              1.834              2.095
 Vibration    22          0.645              1.818              1.998
 Vibration    23          0.650              1.800              1.904
 Vibration    24          0.662              1.764              1.734
 Vibration    25          0.672              1.734              1.618
 Vibration    26          0.675              1.727              1.589
 Vibration    27          0.677              1.721              1.569
 Vibration    28          0.679              1.713              1.541
 Vibration    29          0.685              1.695              1.483
 Vibration    30          0.693              1.673              1.415
 Vibration    31          0.701              1.650              1.350
 Vibration    32          0.704              1.641              1.325
 Vibration    33          0.724              1.585              1.187
 Vibration    34          0.725              1.582              1.181
 Vibration    35          0.728              1.572              1.158
 Vibration    36          0.731              1.563              1.140
 Vibration    37          0.736              1.550              1.113
 Vibration    38          0.740              1.539              1.090
 Vibration    39          0.764              1.476              0.972
 Vibration    40          0.767              1.468              0.959
 Vibration    41          0.770              1.459              0.943
 Vibration    42          0.772              1.453              0.934
 Vibration    43          0.778              1.439              0.912
 Vibration    44          0.780              1.433              0.902
 Vibration    45          0.786              1.418              0.878
 Vibration    46          0.791              1.406              0.860
 Vibration    47          0.803              1.376              0.817
 Vibration    48          0.809              1.361              0.796
 Vibration    49          0.816              1.342              0.771

 Optimization completed.
    -- Stationary point found.
 Normal termination of Gaussian 16 at Fri Nov  4 11:08:34 2022.
