 Gaussian 16, Revision C.01,
 Gaussian 16:  ES64L-G16RevC.01  3-Jul-2019

 ---------------------------------------
 # opt freq b3lyp/gen nosymm pseudo=read
 ---------------------------------------

 -------------------
 Title Card Required
 -------------------
 Symbolic Z-matrix:
 Charge =  0 Multiplicity = 1

 SCF Done:  E(RB3LYP) =  -5118.90092455     A.U. after   32 cycles
 SCF Done:  E(RB3LYP) =  -5118.90932073     A.U. after   22 cycles
 SCF Done:  E(RB3LYP) =  -5118.91222666     A.U. after   21 cycles
 SCF Done:  E(RB3LYP) =  -5118.91269807     A.U. after   20 cycles
 SCF Done:  E(RB3LYP) =  -5118.91313859     A.U. after   20 cycles
 SCF Done:  E(RB3LYP) =  -5118.91341109     A.U. after   20 cycles
 SCF Done:  E(RB3LYP) =  -5118.91355546     A.U. after   19 cycles
 SCF Done:  E(RB3LYP) =  -5118.91369552     A.U. after   19 cycles
 SCF Done:  E(RB3LYP) =  -5118.91375473     A.U. after   19 cycles
 SCF Done:  E(RB3LYP) =  -5118.91382926     A.U. after   18 cycles
 SCF Done:  E(RB3LYP) =  -5118.91387431     A.U. after   19 cycles
 SCF Done:  E(RB3LYP) =  -5118.91389719     A.U. after   18 cycles
 SCF Done:  E(RB3LYP) =  -5118.91391252     A.U. after   18 cycles
 SCF Done:  E(RB3LYP) =  -5118.91391978     A.U. after   17 cycles
 SCF Done:  E(RB3LYP) =  -5118.91392225     A.U. after   16 cycles
 SCF Done:  E(RB3LYP) =  -5118.91392290     A.U. after   14 cycles
 SCF Done:  E(RB3LYP) =  -5118.91392332     A.U. after   14 cycles
 Optimization completed.
    -- Stationary point found.
 Normal termination of Gaussian 16 at Fri Nov  4 11:17:36 2022.

 ------------------------------------------------------------------
 #N Geom=AllCheck Guess=TCheck SCRF=Check GenChk RB3LYP/ChkBas Freq
 ------------------------------------------------------------------

 Structure from the checkpoint file:  "/home/chesagar/scratch/Gau-94943.chk"
 -------------------
 Title Card Required
 -------------------
 Charge =  0 Multiplicity = 1

                          Input orientation:
 ---------------------------------------------------------------------
 Center     Atomic      Atomic             Coordinates (Angstroms)
 Number     Number       Type             X           Y           Z
 ---------------------------------------------------------------------
      1         42           0        0.274043    1.507122   11.508953
      2         16           0        1.139652    3.660522   11.869048
      3         16           0       -1.934176    1.883191   12.314989
      4         16           0       -0.177360    1.067466    9.216936
      5         16           0        1.917213   -0.046042   11.748342
      6         42           0       -2.001815    2.378987    9.988025
      7         16           0       -3.356178    1.991238    8.202542
      8         16           0       -1.501006    4.674496   10.099055
      9         42           0        0.439815    3.318266    9.579021
     10         16           0       -0.013882    3.794979    7.130411
     11         16           0        2.830504    2.700365    9.022854
     12         42           0        2.969146    2.078886   11.185298
     13         42           0       -2.152955    4.063577    7.780069
     14         16           0        4.085060    3.625830   12.606047
     15          1           0        5.327237    3.102839   12.709876
     16         16           0        4.911596    0.755583   11.160931
     17          1           0        5.874036    1.706741   11.097009
     18         16           0       -2.969866    6.305570    7.729720
     19          1           0       -2.524941    6.843344    8.885819
     20         16           0       -3.296178    3.949450    5.717299
     21          1           0       -3.096629    5.200562    5.240300
 ---------------------------------------------------------------------

 SCF Done:  E(RB3LYP) =  -5118.91392332     A.U. after    3 cycles

 Alpha  occ. eigenvalues --  -88.93627 -88.92307 -88.92262 -88.89516 -88.89478
 Alpha  occ. eigenvalues --  -88.89243 -88.89221 -88.89078 -88.88744 -88.88493
 Alpha  occ. eigenvalues --  -88.88404 -88.88183  -8.01260  -7.99931  -7.99920
 Alpha  occ. eigenvalues --   -7.97291  -7.97256  -7.96981  -7.96956  -7.96723
 Alpha  occ. eigenvalues --   -7.96447  -7.96194  -7.96088  -7.95865  -5.97234
 Alpha  occ. eigenvalues --   -5.97228  -5.97168  -5.95937  -5.95924  -5.95888
 Alpha  occ. eigenvalues --   -5.95878  -5.95831  -5.95818  -5.93343  -5.93310
 Alpha  occ. eigenvalues --   -5.93278  -5.93250  -5.93093  -5.93047  -5.93018
 Alpha  occ. eigenvalues --   -5.92997  -5.92954  -5.92924  -5.92818  -5.92795
 Alpha  occ. eigenvalues --   -5.92742  -5.92714  -5.92711  -5.92592  -5.92439
 Alpha  occ. eigenvalues --   -5.92372  -5.92308  -5.92173  -5.92147  -5.92085
 Alpha  occ. eigenvalues --   -5.91984  -5.91913  -5.91768  -5.91766  -5.91543
 Alpha  occ. eigenvalues --   -2.57700  -2.56911  -2.56866  -2.56716  -2.56657
 Alpha  occ. eigenvalues --   -1.61386  -1.60745  -1.60273  -1.60064  -1.59932
 Alpha  occ. eigenvalues --   -1.59733  -1.59265  -1.59006  -1.58935  -1.58363
 Alpha  occ. eigenvalues --   -1.58230  -1.58163  -1.58049  -1.57655  -1.57598
 Alpha  occ. eigenvalues --   -0.77415  -0.76248  -0.75797  -0.74190  -0.73863
 Alpha  occ. eigenvalues --   -0.72751  -0.72587  -0.72367  -0.72035  -0.71849
 Alpha  occ. eigenvalues --   -0.71418  -0.70567  -0.46311  -0.45401  -0.44598
 Alpha  occ. eigenvalues --   -0.43694  -0.43574  -0.43147  -0.42936  -0.41857
 Alpha  occ. eigenvalues --   -0.41566  -0.40607  -0.40171  -0.39336  -0.38683
 Alpha  occ. eigenvalues --   -0.38501  -0.37990  -0.37799  -0.36702  -0.36228
 Alpha  occ. eigenvalues --   -0.35969  -0.35586  -0.35027  -0.34782  -0.34644
 Alpha  occ. eigenvalues --   -0.34479  -0.34239  -0.33344  -0.33088  -0.32266
 Alpha  occ. eigenvalues --   -0.31675  -0.30953  -0.30819  -0.30157  -0.29643
 Alpha  occ. eigenvalues --   -0.29575  -0.28537  -0.28013  -0.27800  -0.27177
 Alpha  occ. eigenvalues --   -0.27155  -0.26209  -0.24179
 Alpha virt. eigenvalues --   -0.19359  -0.16374  -0.15947  -0.15649  -0.14869
 Alpha virt. eigenvalues --   -0.14468  -0.14085  -0.13142  -0.13079  -0.12516
 Alpha virt. eigenvalues --   -0.11534  -0.11465  -0.11228  -0.10007  -0.09860

 Mulliken charges:
               1
     1  Mo  -0.004374
     2  S    0.176502
     3  S   -0.054008
     4  S    0.319366
     5  S   -0.024873
     6  Mo  -0.001401
     7  S   -0.023937
     8  S    0.137854
     9  Mo  -0.324346
    10  S    0.017007
    11  S    0.015427
    12  Mo  -0.272136
    13  Mo  -0.256858
    14  S   -0.007343
    15  H    0.060243
    16  S    0.013285
    17  H    0.070524
    18  S   -0.030896
    19  H    0.072930
    20  S    0.026374
    21  H    0.090660
 Sum of Mulliken charges =  -0.00000

 Dipole moment (field-independent basis, Debye):
    X=              1.2122    Y=              0.9717    Z=              0.8603  Tot=              1.7758
 Quadrupole moment (field-independent basis, Debye-Ang):
   XX=           -274.6813   YY=           -270.1304   ZZ=           -265.5319
   XY=              7.0133   XZ=              9.1302   YZ=             11.8828

  Exact polarizability:     632.949     -98.668     385.346     177.832     -87.253     473.021
 Approx polarizability:    1775.323    -172.811    1171.504     332.074    -257.112    1429.425

                      1                      2                      3
                      A                      A                      A
 Frequencies --     28.4790                45.4917                49.8244
 Red. masses --     18.3045                15.3091                18.7842
 Frc consts  --      0.0087                 0.0187                 0.0275
 IR Inten    --      0.7135                 1.2924                 0.0722

                      4                      5                      6
                      A                      A                      A
 Frequencies --     66.3901                71.4067                90.9943
 Red. masses --     21.4791                17.5131                21.7032
 Frc consts  --      0.0558                 0.0526                 0.1059
 IR Inten    --      2.4704                 0.3354                 1.4380

                      7                      8                      9
                      A                      A                      A
 Frequencies --     98.4707               105.2964               109.5460
 Red. masses --     27.7959                30.4453                26.7699
 Frc consts  --      0.1588                 0.1989                 0.1893
 IR Inten    --      1.3106                 0.6178                 0.6218

                     10                     11                     12
                      A                      A                      A
 Frequencies --    111.3873               114.4772               134.4383
 Red. masses --     31.6833                27.5281                33.2275
 Frc consts  --      0.2316                 0.2126                 0.3538
 IR Inten    --      0.1109                 0.3187                 1.8006

                     13                     14                     15
                      A                      A                      A
 Frequencies --    141.1132               147.2754               157.2511
 Red. masses --     42.3436                44.9237                29.9264
 Frc consts  --      0.4968                 0.5741                 0.4360
 IR Inten    --      0.1032                 1.3361                 0.3418

                     16                     17                     18
                      A                      A                      A
 Frequencies --    158.9257               170.7577               182.7250
 Red. masses --     23.9067                27.2313                21.8563
 Frc consts  --      0.3558                 0.4678                 0.4300
 IR Inten    --      3.2526                 0.0722                 1.5140

                     19                     20                     21
                      A                      A                      A
 Frequencies --    188.0498               202.4406               206.3502
 Red. masses --     28.3550                15.3732                13.8351
 Frc consts  --      0.5908                 0.3712                 0.3471
 IR Inten    --      1.0231                 0.1713                 0.7253

                     22                     23                     24
                      A                      A                      A
 Frequencies --    220.4170               221.3107               237.3041
 Red. masses --     25.1121                39.4751                37.3360
 Frc consts  --      0.7188                 1.1391                 1.2388
 IR Inten    --      6.5868                 1.2573                56.1400

                     25                     26                     27
                      A                      A                      A
 Frequencies --    246.6890               265.2388               267.2504
 Red. masses --     36.7594                34.5659                26.9444
 Frc consts  --      1.3180                 1.4328                 1.1338
 IR Inten    --      0.2491                12.6230                 5.6918

                     28                     29                     30
                      A                      A                      A
 Frequencies --    272.3133               284.1282               286.7085
 Red. masses --     30.4320                31.9133                30.5991
 Frc consts  --      1.3296                 1.5179                 1.4820
 IR Inten    --      4.2837                 9.2201                42.1934

                     31                     32                     33
                      A                      A                      A
 Frequencies --    295.4758               334.5914               341.1867
 Red. masses --     22.9553                14.1447                36.5757
 Frc consts  --      1.1808                 0.9330                 2.5086
 IR Inten    --      0.3084                 6.3050                 4.7836

                     34                     35                     36
                      A                      A                      A
 Frequencies --    343.4937               350.3586               353.8537
 Red. masses --     15.8201                26.7009                12.6605
 Frc consts  --      1.0998                 1.9311                 0.9340
 IR Inten    --     37.6646                 2.2294                42.9464

                     37                     38                     39
                      A                      A                      A
 Frequencies --    355.6971               383.2771               395.8203
 Red. masses --     10.6883                 1.3898                 4.1719
 Frc consts  --      0.7967                 0.1203                 0.3851
 IR Inten    --     49.7689                 6.4555                21.9317

                     40                     41                     42
                      A                      A                      A
 Frequencies --    402.4823               405.5530               411.3459
 Red. masses --      1.2409                 1.5816                 4.5155
 Frc consts  --      0.1184                 0.1533                 0.4502
 IR Inten    --      9.5133                 4.5756                22.9296

                     43                     44                     45
                      A                      A                      A
 Frequencies --    414.1029               418.5508               423.6603
 Red. masses --      5.1861                 2.8098                 2.7678
 Frc consts  --      0.5240                 0.2900                 0.2927
 IR Inten    --      2.8685                14.0666                 5.0689

                     46                     47                     48
                      A                      A                      A
 Frequencies --    432.0470               450.4256               452.9868
 Red. masses --     27.0957                14.4984                14.1914
 Frc consts  --      2.9800                 1.7331                 1.7157
 IR Inten    --      1.2107                 9.0170                64.6163

                     49                     50                     51
                      A                      A                      A
 Frequencies --    462.5266               724.3486               744.3000
 Red. masses --     29.7422                 1.0625                 1.0528
 Frc consts  --      3.7488                 0.3285                 0.3436
 IR Inten    --     15.6519                 2.7583                 8.6752

                     52                     53                     54
                      A                      A                      A
 Frequencies --    767.5898               773.5861              2630.2098
 Red. masses --      1.0430                 1.0441                 1.0381
 Frc consts  --      0.3621                 0.3681                 4.2312
 IR Inten    --     21.5912                10.6123                 6.2062

                     55                     56                     57
                      A                      A                      A
 Frequencies --   2640.9683              2649.9145              2659.2033
 Red. masses --      1.0382                 1.0380                 1.0383
 Frc consts  --      4.2665                 4.2945                 4.3259
 IR Inten    --      1.3233                14.7933                 4.1374

 - Thermochemistry -
 -------------------
 Temperature   298.150 Kelvin.  Pressure   1.00000 Atm.
 Atom     1 has atomic number 42 and mass  97.90550

 Molecular mass:   877.22366 amu.
 Principal axes and moments of inertia in atomic units:
                           1         2         3
     Eigenvalues --  8381.58984********************
           X            0.78986   0.60102  -0.12205
           Y           -0.30820   0.56105   0.76827
           Z            0.53023  -0.56921   0.62838
 This molecule is an asymmetric top.
 Rotational symmetry number  1.
 Warning -- assumption of classical behavior for rotation
           may cause significant error
 Rotational temperatures (Kelvin)      0.01033     0.00324     0.00296
 Rotational constants (GHZ):           0.21532     0.06754     0.06176
 Zero-point vibrational energy     154916.4 (Joules/Mol)
                                   37.02592 (Kcal/Mol)
 Warning -- explicit consideration of  49 degrees of freedom as
           vibrations may cause significant error
 Vibrational temperatures:     40.97    65.45    71.69    95.52   102.74
          (Kelvin)            130.92   141.68   151.50   157.61   160.26
                              164.71   193.43   203.03   211.90   226.25
                              228.66   245.68   262.90   270.56   291.27
                              296.89   317.13   318.42   341.43   354.93
                              381.62   384.51   391.80   408.80   412.51
                              425.12   481.40   490.89   494.21   504.09
                              509.12   511.77   551.45   569.50   579.08
                              583.50   591.84   595.80   602.20   609.55
                              621.62   648.06   651.75   665.47  1042.18
                             1070.88  1104.39  1113.02  3784.29  3799.76
                             3812.64  3826.00

 Zero-point correction=                           0.059005 (Hartree/Particle)
 Thermal correction to Energy=                    0.087248
 Thermal correction to Enthalpy=                  0.088192
 Thermal correction to Gibbs Free Energy=        -0.001071
 Sum of electronic and zero-point Energies=          -5118.854919
 Sum of electronic and thermal Energies=             -5118.826676
 Sum of electronic and thermal Enthalpies=           -5118.825732
 Sum of electronic and thermal Free Energies=        -5118.914994

                     E (Thermal)             CV                S
                      KCal/Mol        Cal/Mol-Kelvin    Cal/Mol-Kelvin
 Total                   54.749             93.266            187.869
 Electronic               0.000              0.000              0.000
 Translational            0.889              2.981             46.191
 Rotational               0.889              2.981             37.124
 Vibrational             52.971             87.304            104.554
 Vibration     1          0.593              1.984              5.933
 Vibration     2          0.595              1.979              5.004
 Vibration     3          0.595              1.978              4.824
 Vibration     4          0.598              1.970              4.258
 Vibration     5          0.598              1.968              4.114
 Vibration     6          0.602              1.956              3.639
 Vibration     7          0.604              1.950              3.484
 Vibration     8          0.605              1.945              3.354
 Vibration     9          0.606              1.942              3.277
 Vibration    10          0.607              1.940              3.245
 Vibration    11          0.607              1.937              3.192
 Vibration    12          0.613              1.919              2.882
 Vibration    13          0.615              1.912              2.789
 Vibration    14          0.617              1.906              2.707
 Vibration    15          0.621              1.895              2.583
 Vibration    16          0.621              1.893              2.563
 Vibration    17          0.626              1.878              2.427
 Vibration    18          0.630              1.863              2.300
 Vibration    19          0.633              1.856              2.247
 Vibration    20          0.639              1.836              2.111
 Vibration    21          0.641              1.831              2.076
 Vibration    22          0.647              1.810              1.956
 Vibration    23          0.648              1.809              1.948
 Vibration    24          0.656              1.784              1.823
 Vibration    25          0.661              1.768              1.754
 Vibration    26          0.671              1.737              1.627
 Vibration    27          0.672              1.733              1.614
 Vibration    28          0.675              1.724              1.581
 Vibration    29          0.683              1.703              1.509
 Vibration    30          0.684              1.698              1.493
 Vibration    31          0.690              1.682              1.442
 Vibration    32          0.716              1.606              1.238
 Vibration    33          0.721              1.593              1.207
 Vibration    34          0.722              1.588              1.196
 Vibration    35          0.727              1.575              1.165
 Vibration    36          0.730              1.567              1.149
 Vibration    37          0.731              1.564              1.141
 Vibration    38          0.752              1.506              1.026
 Vibration    39          0.763              1.479              0.978
 Vibration    40          0.768              1.465              0.954
 Vibration    41          0.771              1.458              0.942
 Vibration    42          0.775              1.446              0.922
 Vibration    43          0.778              1.440              0.912
 Vibration    44          0.781              1.430              0.897
 Vibration    45          0.786              1.419              0.880
 Vibration    46          0.793              1.400              0.852
 Vibration    47          0.809              1.360              0.794
 Vibration    48          0.812              1.354              0.787
 Vibration    49          0.820              1.333              0.759

                           ! Non-Optimized Parameters !
 Normal termination of Gaussian 16 at Fri Nov  4 11:19:53 2022.
