 Gaussian 16, Revision C.01,
 Gaussian 16:  ES64L-G16RevC.01  3-Jul-2019

 -----------------------------------------------------------
 # opt=(calcfc,ts,noeigen) freq b3lyp/gen nosymm pseudo=read
 -----------------------------------------------------------

 -------------------
 Title Card Required
 -------------------
 Symbolic Z-matrix:
 Charge =  0 Multiplicity = 1

 SCF Done:  E(RB3LYP) =  -5118.80857209     A.U. after   31 cycles
 SCF Done:  E(RB3LYP) =  -5118.83667710     A.U. after   21 cycles
 SCF Done:  E(RB3LYP) =  -5118.85089634     A.U. after   21 cycles
 SCF Done:  E(RB3LYP) =  -5118.85586534     A.U. after   21 cycles
 SCF Done:  E(RB3LYP) =  -5118.85999246     A.U. after   21 cycles
 SCF Done:  E(RB3LYP) =  -5118.86353058     A.U. after   21 cycles
 SCF Done:  E(RB3LYP) =  -5118.86547103     A.U. after   19 cycles
 SCF Done:  E(RB3LYP) =  -5118.86742921     A.U. after   20 cycles
 SCF Done:  E(RB3LYP) =  -5118.86881375     A.U. after   20 cycles
 SCF Done:  E(RB3LYP) =  -5118.86972184     A.U. after   19 cycles
 SCF Done:  E(RB3LYP) =  -5118.87342776     A.U. after   15 cycles
 SCF Done:  E(RB3LYP) =  -5118.87342792     A.U. after   14 cycles
 SCF Done:  E(RB3LYP) =  -5118.87342819     A.U. after   14 cycles
 SCF Done:  E(RB3LYP) =  -5118.87342845     A.U. after   13 cycles
 SCF Done:  E(RB3LYP) =  -5118.87342843     A.U. after   15 cycles
 SCF Done:  E(RB3LYP) =  -5118.87342860     A.U. after   14 cycles
 SCF Done:  E(RB3LYP) =  -5118.87342764     A.U. after   16 cycles
 SCF Done:  E(RB3LYP) =  -5118.87342864     A.U. after   15 cycles
 SCF Done:  E(RB3LYP) =  -5118.87342865     A.U. after   11 cycles
 Optimization completed.
    -- Stationary point found.
 Normal termination of Gaussian 16 at Thu Dec  8 21:25:12 2022.

 ------------------------------------------------------------------
 #N Geom=AllCheck Guess=TCheck SCRF=Check GenChk RB3LYP/ChkBas Freq
 ------------------------------------------------------------------

 Structure from the checkpoint file:  "/home/chesagar/scratch/Gau-44723.chk"
 -------------------
 Title Card Required
 -------------------
 Charge =  0 Multiplicity = 1

                          Input orientation:
 ---------------------------------------------------------------------
 Center     Atomic      Atomic             Coordinates (Angstroms)
 Number     Number       Type             X           Y           Z
 ---------------------------------------------------------------------
      1         42           0       -0.108769    1.977735   12.068294
      2         16           0        0.224317    4.163342   12.564250
      3         16           0       -2.415863    1.650596   12.150471
      4         16           0        0.279107    1.506692    9.718459
      5         16           0        1.761583    0.859373   12.808566
      6         42           0       -1.943927    2.242875    9.904318
      7         16           0       -2.701059    1.631351    7.875723
      8         16           0       -2.037679    4.571236   10.115871
      9         42           0        0.318257    3.814482   10.213071
     10         16           0        0.224949    4.283346    7.587934
     11         16           0        2.642452    4.031271    9.914564
     12         42           0        3.095560    2.173774   11.307736
     13         42           0       -1.955753    3.959904    7.711893
     14         16           0        4.826449    2.725113   12.472168
     15          1           0        5.907250    1.712290   11.674773
     16         16           0        4.279539    0.801003   10.127592
     17          1           0        5.724075    1.091396   10.924284
     18         16           0       -3.198773    5.979961    7.441337
     19          1           0       -3.150021    6.551372    8.663915
     20         16           0       -2.614867    3.654200    5.457630
     21          1           0       -2.573976    4.926512    4.997743
 ---------------------------------------------------------------------

 SCF Done:  E(RB3LYP) =  -5118.87342865     A.U. after    3 cycles

 Alpha  occ. eigenvalues --  -88.93607 -88.91518 -88.91001 -88.90440 -88.89912
 Alpha  occ. eigenvalues --  -88.89717 -88.89431 -88.89399 -88.88988 -88.88777
 Alpha  occ. eigenvalues --  -88.87646 -88.87414  -8.01190  -7.99141  -7.98797
 Alpha  occ. eigenvalues --   -7.98214  -7.97692  -7.97454  -7.97293  -7.97167
 Alpha  occ. eigenvalues --   -7.96798  -7.96603  -7.95343  -7.95095  -5.97212
 Alpha  occ. eigenvalues --   -5.97136  -5.97088  -5.95152  -5.95118  -5.95021
 Alpha  occ. eigenvalues --   -5.94790  -5.94756  -5.94674  -5.94283  -5.94115
 Alpha  occ. eigenvalues --   -5.94070  -5.93786  -5.93572  -5.93545  -5.93486
 Alpha  occ. eigenvalues --   -5.93396  -5.93338  -5.93332  -5.93262  -5.93166
 Alpha  occ. eigenvalues --   -5.93137  -5.93099  -5.93047  -5.92851  -5.92774
 Alpha  occ. eigenvalues --   -5.92707  -5.92597  -5.92565  -5.92369  -5.91598
 Alpha  occ. eigenvalues --   -5.91382  -5.91251  -5.91037  -5.91006  -5.90760
 Alpha  occ. eigenvalues --   -2.57590  -2.57122  -2.56324  -2.55993  -2.55978
 Alpha  occ. eigenvalues --   -1.61247  -1.60382  -1.59956  -1.59653  -1.59403
 Alpha  occ. eigenvalues --   -1.59323  -1.59029  -1.58858  -1.58606  -1.58133
 Alpha  occ. eigenvalues --   -1.57994  -1.57915  -1.57716  -1.57384  -1.57004
 Alpha  occ. eigenvalues --   -0.77169  -0.75513  -0.74615  -0.73857  -0.73176
 Alpha  occ. eigenvalues --   -0.72846  -0.72101  -0.71852  -0.71595  -0.71163
 Alpha  occ. eigenvalues --   -0.71095  -0.70877  -0.49192  -0.45016  -0.43667
 Alpha  occ. eigenvalues --   -0.43542  -0.43056  -0.42822  -0.41740  -0.40888
 Alpha  occ. eigenvalues --   -0.40667  -0.40473  -0.39140  -0.38666  -0.38265
 Alpha  occ. eigenvalues --   -0.37801  -0.37724  -0.37370  -0.36747  -0.36379
 Alpha  occ. eigenvalues --   -0.35962  -0.35505  -0.35058  -0.34922  -0.34672
 Alpha  occ. eigenvalues --   -0.34360  -0.33992  -0.33772  -0.32699  -0.31792
 Alpha  occ. eigenvalues --   -0.31635  -0.31024  -0.30611  -0.30400  -0.29941
 Alpha  occ. eigenvalues --   -0.29472  -0.28746  -0.28443  -0.28137  -0.27297
 Alpha  occ. eigenvalues --   -0.26096  -0.25608  -0.24872
 Alpha virt. eigenvalues --   -0.17671  -0.17330  -0.16185  -0.15113  -0.14954
 Alpha virt. eigenvalues --   -0.14378  -0.13750  -0.13248  -0.12836  -0.12308
 Alpha virt. eigenvalues --   -0.11577  -0.11279  -0.10857  -0.09947  -0.09560

 Mulliken charges:
               1
     1  Mo  -0.065664
     2  S    0.113816
     3  S   -0.061778
     4  S    0.301467
     5  S   -0.093851
     6  Mo   0.079929
     7  S   -0.026901
     8  S    0.128045
     9  Mo  -0.402397
    10  S   -0.018745
    11  S   -0.022101
    12  Mo   0.158854
    13  Mo  -0.190387
    14  S   -0.015542
    15  H   -0.002961
    16  S   -0.020799
    17  H   -0.000485
    18  S   -0.033215
    19  H    0.070907
    20  S    0.013638
    21  H    0.088168
 Sum of Mulliken charges =  -0.00000

 Dipole moment (field-independent basis, Debye):
    X=              0.8713    Y=             -0.1429    Z=              2.5736  Tot=              2.7209
 Quadrupole moment (field-independent basis, Debye-Ang):
   XX=           -279.6801   YY=           -273.2637   ZZ=           -230.3079
   XY=              1.5067   XZ=              3.5920   YZ=              6.0967

  Exact polarizability:     606.196     -73.036     359.318     150.124     -64.933     496.317
 Approx polarizability:    1668.845     -36.271    1125.755     272.494     -96.527    1415.307

 ******    1 imaginary frequencies (negative Signs) ******

                      1                      2                      3
                      A                      A                      A
 Frequencies --  -1217.9120                19.8027                39.3460
 Red. masses --      1.0911                16.6395                18.1618
 Frc consts  --      0.9536                 0.0038                 0.0166
 IR Inten    --    256.6964                 0.0425                 0.3498

                      4                      5                      6
                      A                      A                      A
 Frequencies --     51.1704                68.4793                74.9533
 Red. masses --     21.4001                19.9471                33.8991
 Frc consts  --      0.0330                 0.0551                 0.1122
 IR Inten    --      0.3189                 0.6875                 1.2997

                      7                      8                      9
                      A                      A                      A
 Frequencies --     80.2287                93.8596                97.2947
 Red. masses --     30.2471                23.8930                23.3509
 Frc consts  --      0.1147                 0.1240                 0.1302
 IR Inten    --      1.5439                 0.0919                 1.4409

                     10                     11                     12
                      A                      A                      A
 Frequencies --    109.4766               119.0897               123.0879
 Red. masses --     33.4507                32.1397                36.4022
 Frc consts  --      0.2362                 0.2686                 0.3249
 IR Inten    --      1.2580                 0.5060                 0.4551

                     13                     14                     15
                      A                      A                      A
 Frequencies --    130.4318               141.3835               143.0640
 Red. masses --     24.9954                17.0251                31.6318
 Frc consts  --      0.2505                 0.2005                 0.3814
 IR Inten    --      0.4405                 2.9293                 0.0489

                     16                     17                     18
                      A                      A                      A
 Frequencies --    151.6715               156.9600               169.5329
 Red. masses --     37.9875                27.9088                37.0267
 Frc consts  --      0.5149                 0.4051                 0.6270
 IR Inten    --      0.1696                 3.4489                 1.2339

                     19                     20                     21
                      A                      A                      A
 Frequencies --    172.3669               190.3262               196.7042
 Red. masses --     30.4832                29.6372                21.0661
 Frc consts  --      0.5336                 0.6325                 0.4802
 IR Inten    --      0.3736                 3.9167                11.8842

                     22                     23                     24
                      A                      A                      A
 Frequencies --    199.1749               212.4239               226.2392
 Red. masses --     35.8908                17.0309                49.6392
 Frc consts  --      0.8389                 0.4528                 1.4970
 IR Inten    --      1.3178                 7.6598                 0.8862

                     25                     26                     27
                      A                      A                      A
 Frequencies --    248.8883               259.7912               275.7821
 Red. masses --     35.3216                35.5453                34.0720
 Frc consts  --      1.2891                 1.4135                 1.5268
 IR Inten    --      4.2013                 0.0919                11.8983

                     28                     29                     30
                      A                      A                      A
 Frequencies --    279.3848               283.2998               297.5427
 Red. masses --     36.6442                31.2052                29.7331
 Frc consts  --      1.6852                 1.4756                 1.5509
 IR Inten    --      6.2416                 1.1785                 1.2785

                     31                     32                     33
                      A                      A                      A
 Frequencies --    307.4013               327.9364               338.7188
 Red. masses --     28.2744                40.6754                16.9150
 Frc consts  --      1.5742                 2.5773                 1.1434
 IR Inten    --     69.9898                 6.2796                 8.6363

                     34                     35                     36
                      A                      A                      A
 Frequencies --    355.5201               369.7545               374.0384
 Red. masses --      9.7483                34.2541                15.9405
 Frc consts  --      0.7259                 2.7592                 1.3140
 IR Inten    --     41.7416                11.2904                 7.5992

                     37                     38                     39
                      A                      A                      A
 Frequencies --    383.2566               389.5361               401.4681
 Red. masses --      1.2443                14.0983                23.8797
 Frc consts  --      0.1077                 1.2604                 2.2677
 IR Inten    --     15.6580                 8.8243                25.2133

                     40                     41                     42
                      A                      A                      A
 Frequencies --    412.4630               422.4081               432.0559
 Red. masses --      4.6963                 1.6196                10.3471
 Frc consts  --      0.4707                 0.1703                 1.1380
 IR Inten    --     21.1026                 5.1402                12.5015

                     43                     44                     45
                      A                      A                      A
 Frequencies --    434.3107               450.9882               457.9489
 Red. masses --     18.2119                27.7588                34.8547
 Frc consts  --      2.0240                 3.3265                 4.3067
 IR Inten    --      5.8199                 4.4880                18.0654

                     46                     47                     48
                      A                      A                      A
 Frequencies --    468.6765               487.2915               490.2236
 Red. masses --     32.4840                33.0354                 1.1306
 Frc consts  --      4.2040                 4.6218                 0.1601
 IR Inten    --     55.7168                18.5889                 1.5079

                     49                     50                     51
                      A                      A                      A
 Frequencies --    533.3539               747.9405               773.7357
 Red. masses --     16.0410                 1.0523                 1.0453
 Frc consts  --      2.6885                 0.3468                 0.3687
 IR Inten    --     96.7553                10.9413                 9.5373

                     52                     53                     54
                      A                      A                      A
 Frequencies --   1033.8619              1047.5036              1240.3006
 Red. masses --      1.0521                 1.0118                 1.0185
 Frc consts  --      0.6626                 0.6541                 0.9232
 IR Inten    --     19.9593                 0.2285                12.9971

                     55                     56                     57
                      A                      A                      A
 Frequencies --   1504.9361              2641.8264              2659.9093
 Red. masses --      1.0218                 1.0383                 1.0383
 Frc consts  --      1.3635                 4.2694                 4.3281
 IR Inten    --      7.1922                 2.4251                 5.0151

 - Thermochemistry -
 -------------------
 Temperature   298.150 Kelvin.  Pressure   1.00000 Atm.
 Atom     1 has atomic number 42 and mass  97.90550

 Molecular mass:   877.22366 amu.
 Principal axes and moments of inertia in atomic units:
                           1         2         3
     Eigenvalues --  9562.88032********************
           X            0.77258  -0.63370  -0.03921
           Y           -0.26265  -0.37522   0.88895
           Z            0.57804   0.67648   0.45633
 This molecule is an asymmetric top.
 Rotational symmetry number  1.
 Warning -- assumption of classical behavior for rotation
           may cause significant error
 Rotational temperatures (Kelvin)      0.00906     0.00333     0.00296
 Rotational constants (GHZ):           0.18872     0.06945     0.06177
    1 imaginary frequencies ignored.
 Zero-point vibrational energy     144144.8 (Joules/Mol)
                                   34.45142 (Kcal/Mol)
 Warning -- explicit consideration of  48 degrees of freedom as
           vibrations may cause significant error
 Vibrational temperatures:     28.49    56.61    73.62    98.53   107.84
          (Kelvin)            115.43   135.04   139.99   157.51   171.34
                              177.10   187.66   203.42   205.84   218.22
                              225.83   243.92   248.00   273.84   283.01
                              286.57   305.63   325.51   358.09   373.78
                              396.79   401.97   407.61   428.10   442.28
                              471.83   487.34   511.51   531.99   538.16
                              551.42   560.46   577.62   593.44   607.75
                              621.63   624.88   648.87   658.89   674.32
                              701.10   705.32   767.38  1076.12  1113.23
                             1487.50  1507.12  1784.52  2165.27  3801.00
                             3827.02

 Zero-point correction=                           0.054902 (Hartree/Particle)
 Thermal correction to Energy=                    0.082235
 Thermal correction to Enthalpy=                  0.083179
 Thermal correction to Gibbs Free Energy=        -0.005114
 Sum of electronic and zero-point Energies=          -5118.818527
 Sum of electronic and thermal Energies=             -5118.791194
 Sum of electronic and thermal Enthalpies=           -5118.790250
 Sum of electronic and thermal Free Energies=        -5118.878542

                     E (Thermal)             CV                S
                      KCal/Mol        Cal/Mol-Kelvin    Cal/Mol-Kelvin
 Total                   51.603             90.030            185.828
 Electronic               0.000              0.000              0.000
 Translational            0.889              2.981             46.191
 Rotational               0.889              2.981             37.227
 Vibrational             49.826             84.068            102.410
 Vibration     1          0.593              1.986              6.654
 Vibration     2          0.594              1.981              5.292
 Vibration     3          0.595              1.977              4.772
 Vibration     4          0.598              1.969              4.197
 Vibration     5          0.599              1.966              4.019
 Vibration     6          0.600              1.963              3.885
 Vibration     7          0.603              1.954              3.578
 Vibration     8          0.603              1.951              3.508
 Vibration     9          0.606              1.942              3.278
 Vibration    10          0.609              1.933              3.115
 Vibration    11          0.610              1.930              3.051
 Vibration    12          0.612              1.923              2.940
 Vibration    13          0.615              1.912              2.785
 Vibration    14          0.616              1.910              2.762
 Vibration    15          0.619              1.901              2.651
 Vibration    16          0.621              1.895              2.586
 Vibration    17          0.625              1.880              2.441
 Vibration    18          0.626              1.876              2.410
 Vibration    19          0.634              1.853              2.225
 Vibration    20          0.636              1.844              2.164
 Vibration    21          0.637              1.841              2.141
 Vibration    22          0.643              1.822              2.023
 Vibration    23          0.650              1.801              1.909
 Vibration    24          0.662              1.765              1.738
 Vibration    25          0.668              1.746              1.663
 Vibration    26          0.677              1.718              1.560
 Vibration    27          0.680              1.712              1.537
 Vibration    28          0.682              1.705              1.514
 Vibration    29          0.691              1.678              1.431
 Vibration    30          0.697              1.660              1.376
 Vibration    31          0.711              1.620              1.270
 Vibration    32          0.719              1.598              1.218
 Vibration    33          0.731              1.564              1.142
 Vibration    34          0.742              1.534              1.081
 Vibration    35          0.745              1.525              1.063
 Vibration    36          0.752              1.506              1.026
 Vibration    37          0.757              1.493              1.002
 Vibration    38          0.767              1.467              0.957
 Vibration    39          0.776              1.443              0.918
 Vibration    40          0.785              1.422              0.884
 Vibration    41          0.793              1.400              0.852
 Vibration    42          0.795              1.395              0.845
 Vibration    43          0.810              1.359              0.793
 Vibration    44          0.816              1.343              0.772
 Vibration    45          0.826              1.320              0.741
 Vibration    46          0.843              1.278              0.691
 Vibration    47          0.846              1.272              0.683
 Vibration    48          0.888              1.176              0.580

 Optimization completed.
    -- Stationary point found.
 Normal termination of Gaussian 16 at Thu Dec  8 21:27:31 2022.
