 Gaussian 16, Revision C.01,
 Gaussian 16:  ES64L-G16RevC.01  3-Jul-2019

 ---------------------------------------
 # opt freq b3lyp/gen nosymm pseudo=read
 ---------------------------------------

 -------------------
 Title Card Required
 -------------------
 Symbolic Z-matrix:
 Charge =  0 Multiplicity = 1

 SCF Done:  E(RB3LYP) =  -5117.70961165     A.U. after   30 cycles
 SCF Done:  E(RB3LYP) =  -5117.72325158     A.U. after   19 cycles
 SCF Done:  E(RB3LYP) =  -5117.72360106     A.U. after   18 cycles
 SCF Done:  E(RB3LYP) =  -5117.72368899     A.U. after   17 cycles
 SCF Done:  E(RB3LYP) =  -5117.72375930     A.U. after   18 cycles
 SCF Done:  E(RB3LYP) =  -5117.72378787     A.U. after   17 cycles
 SCF Done:  E(RB3LYP) =  -5117.72379913     A.U. after   17 cycles
 SCF Done:  E(RB3LYP) =  -5117.72380393     A.U. after   15 cycles
 SCF Done:  E(RB3LYP) =  -5117.72380747     A.U. after   15 cycles
 SCF Done:  E(RB3LYP) =  -5117.72380920     A.U. after   14 cycles
 SCF Done:  E(RB3LYP) =  -5117.72381053     A.U. after   14 cycles
 SCF Done:  E(RB3LYP) =  -5117.72381083     A.U. after   13 cycles
 SCF Done:  E(RB3LYP) =  -5117.72381111     A.U. after   12 cycles
 SCF Done:  E(RB3LYP) =  -5117.72381129     A.U. after   12 cycles
 SCF Done:  E(RB3LYP) =  -5117.72381142     A.U. after   12 cycles
 SCF Done:  E(RB3LYP) =  -5117.72381149     A.U. after   11 cycles
 Optimization completed.
    -- Stationary point found.
 Normal termination of Gaussian 16 at Fri Dec  9 12:12:14 2022.

 ------------------------------------------------------------------
 #N Geom=AllCheck Guess=TCheck SCRF=Check GenChk RB3LYP/ChkBas Freq
 ------------------------------------------------------------------

 Structure from the checkpoint file:  "/home/chesagar/scratch/Gau-210736.chk"
 -------------------
 Title Card Required
 -------------------
 Charge =  0 Multiplicity = 1

                          Input orientation:
 ---------------------------------------------------------------------
 Center     Atomic      Atomic             Coordinates (Angstroms)
 Number     Number       Type             X           Y           Z
 ---------------------------------------------------------------------
      1         42           0       -0.059414    1.936332   12.054931
      2         16           0        0.267847    4.127686   12.546638
      3         16           0       -2.372960    1.611886   12.144396
      4         16           0        0.271604    1.457179    9.699102
      5         16           0        1.800709    0.864057   12.823349
      6         42           0       -1.942770    2.215823    9.895828
      7         16           0       -2.738166    1.637908    7.879037
      8         16           0       -1.991877    4.544992   10.119626
      9         42           0        0.357396    3.761928   10.196276
     10         16           0        0.235291    4.229791    7.549083
     11         16           0        2.643265    4.022728    9.865048
     12         42           0        3.139464    2.183931   11.310517
     13         42           0       -1.942869    3.954368    7.712025
     14         16           0        4.605294    2.984892   12.606007
     15         16           0        4.086797    0.767226   10.055940
     16         16           0       -3.131909    6.010271    7.468862
     17          1           0       -3.046273    6.575909    8.692126
     18         16           0       -2.657442    3.674696    5.469423
     19          1           0       -2.597461    4.947535    5.013320
 ---------------------------------------------------------------------

 SCF Done:  E(RB3LYP) =  -5117.72381149     A.U. after    3 cycles

 Alpha  occ. eigenvalues --  -88.93682 -88.91566 -88.90894 -88.90096 -88.89954
 Alpha  occ. eigenvalues --  -88.89798 -88.89688 -88.89407 -88.89395 -88.89028
 Alpha  occ. eigenvalues --  -88.87590 -88.87399  -8.01272  -7.99183  -7.98676
 Alpha  occ. eigenvalues --   -7.97968  -7.97869  -7.97540  -7.97431  -7.97324
 Alpha  occ. eigenvalues --   -7.97186  -7.96840  -7.95287  -7.95079  -5.97301
 Alpha  occ. eigenvalues --   -5.97211  -5.97166  -5.95196  -5.95162  -5.95060
 Alpha  occ. eigenvalues --   -5.94685  -5.94640  -5.94536  -5.94022  -5.93940
 Alpha  occ. eigenvalues --   -5.93938  -5.93846  -5.93763  -5.93620  -5.93575
 Alpha  occ. eigenvalues --   -5.93479  -5.93419  -5.93417  -5.93396  -5.93354
 Alpha  occ. eigenvalues --   -5.93324  -5.93319  -5.93304  -5.93157  -5.93094
 Alpha  occ. eigenvalues --   -5.92934  -5.92894  -5.92814  -5.92642  -5.91544
 Alpha  occ. eigenvalues --   -5.91366  -5.91197  -5.90991  -5.90978  -5.90742
 Alpha  occ. eigenvalues --   -2.58480  -2.57604  -2.57189  -2.56414  -2.55963
 Alpha  occ. eigenvalues --   -1.61281  -1.61056  -1.60851  -1.60384  -1.60310
 Alpha  occ. eigenvalues --   -1.59988  -1.59652  -1.59419  -1.59284  -1.59023
 Alpha  occ. eigenvalues --   -1.58714  -1.58069  -1.57941  -1.57362  -1.57015
 Alpha  occ. eigenvalues --   -0.77229  -0.75549  -0.73991  -0.73353  -0.73000
 Alpha  occ. eigenvalues --   -0.72630  -0.72144  -0.71672  -0.71317  -0.71294
 Alpha  occ. eigenvalues --   -0.70916  -0.70448  -0.45066  -0.43824  -0.43599
 Alpha  occ. eigenvalues --   -0.43171  -0.42878  -0.41815  -0.40943  -0.40787
 Alpha  occ. eigenvalues --   -0.40504  -0.39581  -0.38983  -0.38659  -0.38462
 Alpha  occ. eigenvalues --   -0.37971  -0.37816  -0.37476  -0.36853  -0.36674
 Alpha  occ. eigenvalues --   -0.36087  -0.35458  -0.35172  -0.34947  -0.34630
 Alpha  occ. eigenvalues --   -0.34228  -0.34192  -0.33855  -0.32883  -0.31532
 Alpha  occ. eigenvalues --   -0.31244  -0.31020  -0.30617  -0.30093  -0.29583
 Alpha  occ. eigenvalues --   -0.28847  -0.28675  -0.28100  -0.27381  -0.26036
 Alpha  occ. eigenvalues --   -0.25591  -0.24924
 Alpha virt. eigenvalues --   -0.17945  -0.17262  -0.16466  -0.15271  -0.15167
 Alpha virt. eigenvalues --   -0.14568  -0.14298  -0.14035  -0.13622  -0.12887
 Alpha virt. eigenvalues --   -0.12186  -0.11736  -0.11072  -0.10890  -0.10022

 Mulliken charges:
               1
     1  Mo  -0.063782
     2  S    0.127002
     3  S   -0.062165
     4  S    0.306288
     5  S   -0.060020
     6  Mo   0.083091
     7  S   -0.025127
     8  S    0.125050
     9  Mo  -0.391261
    10  S   -0.027583
    11  S    0.008814
    12  Mo   0.228857
    13  Mo  -0.183619
    14  S   -0.098888
    15  S   -0.103691
    16  S   -0.032887
    17  H    0.070788
    18  S    0.010968
    19  H    0.088166
 Sum of Mulliken charges =  -0.00000

 Dipole moment (field-independent basis, Debye):
    X=              0.4024    Y=             -0.2597    Z=              2.5513  Tot=              2.5959
 Quadrupole moment (field-independent basis, Debye-Ang):
   XX=           -282.2996   YY=           -271.1584   ZZ=           -227.7388
   XY=              2.0505   XZ=             -1.7073   YZ=              4.9906

  Exact polarizability:     571.931     -58.056     360.468     150.837     -59.813     498.736
 Approx polarizability:    1656.375      13.397    1167.547     298.212     -57.333    1451.767

                      1                      2                      3
                      A                      A                      A
 Frequencies --     25.8468                39.7473                52.5201
 Red. masses --     28.6553                20.9707                24.5914
 Frc consts  --      0.0113                 0.0195                 0.0400
 IR Inten    --      0.1948                 0.2383                 0.1929

                      4                      5                      6
                      A                      A                      A
 Frequencies --     68.0776                74.4416                84.9649
 Red. masses --     21.2952                41.7534                33.0777
 Frc consts  --      0.0581                 0.1363                 0.1407
 IR Inten    --      0.5344                 1.2506                 0.7110

                      7                      8                      9
                      A                      A                      A
 Frequencies --     95.9412                99.3512               114.1076
 Red. masses --     30.0894                29.1344                36.4392
 Frc consts  --      0.1632                 0.1694                 0.2795
 IR Inten    --      0.0755                 1.2484                 1.2762

                     10                     11                     12
                      A                      A                      A
 Frequencies --    119.2995               123.7665               132.3213
 Red. masses --     33.6092                38.7569                33.0407
 Frc consts  --      0.2818                 0.3498                 0.3408
 IR Inten    --      0.3158                 0.8559                 0.1391

                     13                     14                     15
                      A                      A                      A
 Frequencies --    144.3384               149.5882               153.9235
 Red. masses --     44.5675                41.7128                37.0215
 Frc consts  --      0.5471                 0.5499                 0.5168
 IR Inten    --      0.9016                 0.2304                 0.8294

                     16                     17                     18
                      A                      A                      A
 Frequencies --    158.1717               170.1456               179.0841
 Red. masses --     30.7659                40.4391                31.4342
 Frc consts  --      0.4535                 0.6898                 0.5940
 IR Inten    --      1.3561                 3.1771                 0.2004

                     19                     20                     21
                      A                      A                      A
 Frequencies --    188.7237               193.7232               198.1295
 Red. masses --     32.5937                23.8540                27.0610
 Frc consts  --      0.6840                 0.5274                 0.6259
 IR Inten    --      6.6659                 7.1176                 1.8004

                     22                     23                     24
                      A                      A                      A
 Frequencies --    203.3343               212.0287               225.3266
 Red. masses --     36.5066                16.8038                45.8636
 Frc consts  --      0.8893                 0.4451                 1.3720
 IR Inten    --      0.8974                 3.9960                 0.6240

                     25                     26                     27
                      A                      A                      A
 Frequencies --    246.0566               263.0803               276.7496
 Red. masses --     37.6971                35.1070                35.4068
 Frc consts  --      1.3447                 1.4316                 1.5978
 IR Inten    --      5.6207                 0.8894                14.8850

                     28                     29                     30
                      A                      A                      A
 Frequencies --    283.3506               289.1134               299.0676
 Red. masses --     32.1752                37.4334                29.8273
 Frc consts  --      1.5220                 1.8435                 1.5718
 IR Inten    --      3.4719                 1.0040                 3.1347

                     31                     32                     33
                      A                      A                      A
 Frequencies --    310.5176               328.9320               338.5598
 Red. masses --     34.8775                39.3016                16.1177
 Frc consts  --      1.9814                 2.5054                 1.0885
 IR Inten    --     27.8255                 6.1851                 8.8554

                     34                     35                     36
                      A                      A                      A
 Frequencies --    354.9950               371.0306               379.4579
 Red. masses --      8.9266                36.3992                 2.3059
 Frc consts  --      0.6628                 2.9523                 0.1956
 IR Inten    --     40.4546                 6.3798                 7.3000

                     37                     38                     39
                      A                      A                      A
 Frequencies --    383.8393               402.6889               413.8691
 Red. masses --      2.2960                25.7760                 3.3591
 Frc consts  --      0.1993                 2.4627                 0.3390
 IR Inten    --     21.1742                19.7600                15.3656

                     40                     41                     42
                      A                      A                      A
 Frequencies --    423.0216               430.9113               432.5660
 Red. masses --      1.8398                17.1806                13.6931
 Frc consts  --      0.1940                 1.8796                 1.5096
 IR Inten    --      6.2597                11.0477                 4.1445

                     43                     44                     45
                      A                      A                      A
 Frequencies --    453.5456               458.9391               472.5572
 Red. masses --     30.5604                30.6313                34.7821
 Frc consts  --      3.7038                 3.8012                 4.5763
 IR Inten    --      1.6728                18.9248                61.5987

                     46                     47                     48
                      A                      A                      A
 Frequencies --    550.4959               558.1740               748.3017
 Red. masses --     37.2118                40.4249                 1.0517
 Frc consts  --      6.6441                 7.4206                 0.3470
 IR Inten    --     71.0716                55.6368                11.0918

                     49                     50                     51
                      A                      A                      A
 Frequencies --    773.7521              2642.0029              2659.1686
 Red. masses --      1.0454                 1.0383                 1.0383
 Frc consts  --      0.3688                 4.2700                 4.3257
 IR Inten    --      9.4137                 2.4850                 5.0177

 - Thermochemistry -
 -------------------
 Temperature   298.150 Kelvin.  Pressure   1.00000 Atm.
 Atom     1 has atomic number 42 and mass  97.90550

 Molecular mass:   875.20801 amu.
 Principal axes and moments of inertia in atomic units:
                           1         2         3
     Eigenvalues --  9475.27386********************
           X            0.76189  -0.64324  -0.07588
           Y           -0.25772  -0.40855   0.87560
           Z            0.59422   0.64755   0.47705
 This molecule is an asymmetric top.
 Rotational symmetry number  1.
 Warning -- assumption of classical behavior for rotation
           may cause significant error
 Rotational temperatures (Kelvin)      0.00914     0.00339     0.00303
 Rotational constants (GHZ):           0.19047     0.07067     0.06306
 Zero-point vibrational energy     112159.8 (Joules/Mol)
                                   26.80683 (Kcal/Mol)
 Warning -- explicit consideration of  47 degrees of freedom as
           vibrations may cause significant error
 Vibrational temperatures:     37.19    57.19    75.56    97.95   107.10
          (Kelvin)            122.25   138.04   142.94   164.18   171.65
                              178.07   190.38   207.67   215.22   221.46
                              227.57   244.80   257.66   271.53   278.72
                              285.06   292.55   305.06   324.19   354.02
                              378.51   398.18   407.68   415.97   430.29
                              446.77   473.26   487.11   510.76   533.83
                              545.96   552.26   579.38   595.47   608.63
                              619.99   622.37   652.55   660.31   679.90
                              792.04   803.09  1076.64  1113.26  3801.25
                             3825.95

 Zero-point correction=                           0.042719 (Hartree/Particle)
 Thermal correction to Energy=                    0.069810
 Thermal correction to Enthalpy=                  0.070754
 Thermal correction to Gibbs Free Energy=        -0.016939
 Sum of electronic and zero-point Energies=          -5117.681092
 Sum of electronic and thermal Energies=             -5117.654002
 Sum of electronic and thermal Enthalpies=           -5117.653058
 Sum of electronic and thermal Free Energies=        -5117.740751

                     E (Thermal)             CV                S
                      KCal/Mol        Cal/Mol-Kelvin    Cal/Mol-Kelvin
 Total                   43.806             87.893            184.565
 Electronic               0.000              0.000              0.000
 Translational            0.889              2.981             46.184
 Rotational               0.889              2.981             37.180
 Vibrational             42.029             81.932            101.201
 Vibration     1          0.593              1.985              6.125
 Vibration     2          0.594              1.981              5.272
 Vibration     3          0.596              1.977              4.720
 Vibration     4          0.598              1.969              4.208
 Vibration     5          0.599              1.966              4.032
 Vibration     6          0.601              1.960              3.773
 Vibration     7          0.603              1.952              3.535
 Vibration     8          0.604              1.950              3.467
 Vibration     9          0.607              1.938              3.198
 Vibration    10          0.609              1.933              3.112
 Vibration    11          0.610              1.929              3.041
 Vibration    12          0.612              1.921              2.912
 Vibration    13          0.616              1.909              2.746
 Vibration    14          0.618              1.903              2.677
 Vibration    15          0.619              1.898              2.623
 Vibration    16          0.621              1.893              2.572
 Vibration    17          0.625              1.879              2.434
 Vibration    18          0.629              1.868              2.338
 Vibration    19          0.633              1.855              2.240
 Vibration    20          0.635              1.849              2.192
 Vibration    21          0.637              1.842              2.150
 Vibration    22          0.639              1.835              2.103
 Vibration    23          0.643              1.823              2.026
 Vibration    24          0.650              1.802              1.916
 Vibration    25          0.661              1.769              1.759
 Vibration    26          0.670              1.741              1.641
 Vibration    27          0.678              1.716              1.554
 Vibration    28          0.682              1.705              1.513
 Vibration    29          0.686              1.694              1.479
 Vibration    30          0.692              1.675              1.422
 Vibration    31          0.699              1.654              1.360
 Vibration    32          0.712              1.618              1.265
 Vibration    33          0.719              1.598              1.219
 Vibration    34          0.731              1.565              1.144
 Vibration    35          0.743              1.532              1.076
 Vibration    36          0.749              1.514              1.041
 Vibration    37          0.753              1.505              1.024
 Vibration    38          0.768              1.464              0.953
 Vibration    39          0.777              1.440              0.913
 Vibration    40          0.785              1.420              0.882
 Vibration    41          0.792              1.403              0.856
 Vibration    42          0.793              1.399              0.850
 Vibration    43          0.812              1.353              0.785
 Vibration    44          0.817              1.341              0.769
 Vibration    45          0.829              1.311              0.730
 Vibration    46          0.906              1.139              0.543
 Vibration    47          0.914              1.122              0.527

                           ! Non-Optimized Parameters !
 Normal termination of Gaussian 16 at Fri Dec  9 12:14:23 2022.
