 Gaussian 16, Revision C.01,
 Gaussian 16:  ES64L-G16RevC.01  3-Jul-2019

 -----------------------------------------------------------
 # opt=(calcfc,ts,noeigen) freq b3lyp/gen nosymm pseudo=read
 -----------------------------------------------------------

 -------------------
 Title Card Required
 -------------------
 Symbolic Z-matrix:
 Charge =  0 Multiplicity = 1

 SCF Done:  E(RB3LYP) =  -5117.61498171     A.U. after   29 cycles
 SCF Done:  E(RB3LYP) =  -5117.64200927     A.U. after   20 cycles
 SCF Done:  E(RB3LYP) =  -5117.65617291     A.U. after   20 cycles
 SCF Done:  E(RB3LYP) =  -5117.66067583     A.U. after   20 cycles
 SCF Done:  E(RB3LYP) =  -5117.66607899     A.U. after   20 cycles
 SCF Done:  E(RB3LYP) =  -5117.66851915     A.U. after   20 cycles
 SCF Done:  E(RB3LYP) =  -5117.66925932     A.U. after   19 cycles
 SCF Done:  E(RB3LYP) =  -5117.66992198     A.U. after   19 cycles
 SCF Done:  E(RB3LYP) =  -5117.66979115     A.U. after   17 cycles
 SCF Done:  E(RB3LYP) =  -5117.66933899     A.U. after   20 cycles
 SCF Done:  E(RB3LYP) =  -5117.67038791     A.U. after   18 cycles
 SCF Done:  E(RB3LYP) =  -5117.67040796     A.U. after   17 cycles
 SCF Done:  E(RB3LYP) =  -5117.67041841     A.U. after   16 cycles
 SCF Done:  E(RB3LYP) =  -5117.67042073     A.U. after   16 cycles
 SCF Done:  E(RB3LYP) =  -5117.67042160     A.U. after   14 cycles
 SCF Done:  E(RB3LYP) =  -5117.67042182     A.U. after   13 cycles
 SCF Done:  E(RB3LYP) =  -5117.67042178     A.U. after   13 cycles
 SCF Done:  E(RB3LYP) =  -5117.67042190     A.U. after   12 cycles
 SCF Done:  E(RB3LYP) =  -5117.67042199     A.U. after   12 cycles
 Optimization completed.
    -- Stationary point found.
 Normal termination of Gaussian 16 at Fri Dec  9 12:35:57 2022.

 ------------------------------------------------------------------
 #N Geom=AllCheck Guess=TCheck SCRF=Check GenChk RB3LYP/ChkBas Freq
 ------------------------------------------------------------------

 Structure from the checkpoint file:  "/home/chesagar/scratch/Gau-220165.chk"
 -------------------
 Title Card Required
 -------------------
 Charge =  0 Multiplicity = 1

                          Input orientation:
 ---------------------------------------------------------------------
 Center     Atomic      Atomic             Coordinates (Angstroms)
 Number     Number       Type             X           Y           Z
 ---------------------------------------------------------------------
      1         42           0        0.001914    1.868963   12.128490
      2         16           0        0.316154    4.022068   12.735820
      3         16           0       -2.337667    1.508640   12.279634
      4         16           0        0.182646    1.579249    9.730510
      5         16           0        1.920532    0.765247   12.694586
      6         42           0       -2.023198    2.313117   10.141847
      7         16           0       -3.148572    1.878402    8.238871
      8         16           0       -2.062624    4.550697   10.351701
      9         42           0        0.329031    3.847725   10.347607
     10         16           0        0.093138    4.643380    7.968254
     11         16           0        2.615827    4.084144    9.972887
     12         42           0        3.203051    2.133296   11.200493
     13         42           0       -2.084749    4.007621    7.526773
     14         16           0        4.786798    2.795854   12.435057
     15         16           0        4.012090    0.809417    9.760831
     16         16           0       -3.443867    5.695132    7.340794
     17          1           0       -3.551195    5.597502    5.596278
     18         16           0       -2.045924    3.661846    5.387569
     19          1           0       -3.134836    5.009181    5.026984
 ---------------------------------------------------------------------

 SCF Done:  E(RB3LYP) =  -5117.67042199     A.U. after    1 cycles

 Alpha  occ. eigenvalues --  -88.93601 -88.91555 -88.90628 -88.90390 -88.89916
 Alpha  occ. eigenvalues --  -88.89882 -88.89676 -88.89299 -88.89252 -88.88846
 Alpha  occ. eigenvalues --  -88.88772 -88.87649  -8.01162  -7.99159  -7.98416
 Alpha  occ. eigenvalues --   -7.98186  -7.97811  -7.97695  -7.97598  -7.97217
 Alpha  occ. eigenvalues --   -7.97061  -7.96657  -7.96543  -7.95380  -5.97198
 Alpha  occ. eigenvalues --   -5.97105  -5.97056  -5.95148  -5.95113  -5.95082
 Alpha  occ. eigenvalues --   -5.94420  -5.94364  -5.94295  -5.94198  -5.94136
 Alpha  occ. eigenvalues --   -5.94060  -5.93860  -5.93791  -5.93692  -5.93657
 Alpha  occ. eigenvalues --   -5.93654  -5.93600  -5.93580  -5.93569  -5.93354
 Alpha  occ. eigenvalues --   -5.93254  -5.93211  -5.93164  -5.93006  -5.92983
 Alpha  occ. eigenvalues --   -5.92843  -5.92727  -5.92643  -5.92580  -5.92485
 Alpha  occ. eigenvalues --   -5.92465  -5.92351  -5.91483  -5.91303  -5.91207
 Alpha  occ. eigenvalues --   -2.58318  -2.57347  -2.57067  -2.56808  -2.55540
 Alpha  occ. eigenvalues --   -1.60968  -1.60868  -1.60676  -1.60281  -1.60166
 Alpha  occ. eigenvalues --   -1.60004  -1.59592  -1.59241  -1.59017  -1.58980
 Alpha  occ. eigenvalues --   -1.58391  -1.58259  -1.57634  -1.57511  -1.57423
 Alpha  occ. eigenvalues --   -0.77033  -0.74921  -0.73706  -0.73329  -0.72764
 Alpha  occ. eigenvalues --   -0.72563  -0.71971  -0.71702  -0.71035  -0.70300
 Alpha  occ. eigenvalues --   -0.69828  -0.69777  -0.48344  -0.43881  -0.43368
 Alpha  occ. eigenvalues --   -0.42790  -0.42179  -0.41339  -0.40825  -0.40564
 Alpha  occ. eigenvalues --   -0.39675  -0.38914  -0.38491  -0.38418  -0.37915
 Alpha  occ. eigenvalues --   -0.37735  -0.37234  -0.37049  -0.36884  -0.36425
 Alpha  occ. eigenvalues --   -0.35963  -0.35829  -0.35673  -0.34983  -0.34753
 Alpha  occ. eigenvalues --   -0.34081  -0.33907  -0.33671  -0.32235  -0.31710
 Alpha  occ. eigenvalues --   -0.31324  -0.30861  -0.30371  -0.29695  -0.29679
 Alpha  occ. eigenvalues --   -0.29129  -0.28914  -0.28224  -0.27244  -0.26450
 Alpha  occ. eigenvalues --   -0.25867  -0.24992
 Alpha virt. eigenvalues --   -0.17694  -0.17057  -0.16756  -0.15532  -0.15175
 Alpha virt. eigenvalues --   -0.15024  -0.14636  -0.14162  -0.13699  -0.13340
 Alpha virt. eigenvalues --   -0.12046  -0.11671  -0.11057  -0.10967  -0.09878

 Mulliken charges:
               1
     1  Mo  -0.013003
     2  S    0.105466
     3  S   -0.055406
     4  S    0.298453
     5  S   -0.079136
     6  Mo   0.075443
     7  S   -0.081948
     8  S    0.154396
     9  Mo  -0.404680
    10  S    0.012174
    11  S    0.009277
    12  Mo   0.252650
    13  Mo   0.044892
    14  S   -0.104938
    15  S   -0.107450
    16  S   -0.070417
    17  H    0.005157
    18  S   -0.044017
    19  H    0.003089
 Sum of Mulliken charges =  -0.00000

 Dipole moment (field-independent basis, Debye):
    X=             -0.6624    Y=             -1.3238    Z=              2.1417  Tot=              2.6035
 Quadrupole moment (field-independent basis, Debye-Ang):
   XX=           -278.7778   YY=           -280.8767   ZZ=           -232.3226
   XY=             -0.3211   XZ=             -7.3761   YZ=             -6.5267

  Exact polarizability:     594.443     -68.887     356.846     146.990     -72.549     512.206
 Approx polarizability:    1727.574     -66.643    1218.007     301.070    -113.307    1539.622

 ******    1 imaginary frequencies (negative Signs) ******

                      1                      2                      3
                      A                      A                      A
 Frequencies --   -952.0493                22.7649                41.0425
 Red. masses --      1.1798                30.2160                23.4805
 Frc consts  --      0.6301                 0.0092                 0.0233
 IR Inten    --    299.6234                 0.0574                 0.1072

                      4                      5                      6
                      A                      A                      A
 Frequencies --     53.6000                63.1755                71.7994
 Red. masses --     26.0499                29.5845                41.2030
 Frc consts  --      0.0441                 0.0696                 0.1251
 IR Inten    --      0.0299                 0.3509                 1.0450

                      7                      8                      9
                      A                      A                      A
 Frequencies --     82.2457                85.8665                95.9624
 Red. masses --     30.6699                38.3222                40.2892
 Frc consts  --      0.1222                 0.1665                 0.2186
 IR Inten    --      0.8446                 0.5179                 0.8939

                     10                     11                     12
                      A                      A                      A
 Frequencies --    106.2153               107.5594               116.1594
 Red. masses --     37.9746                31.1737                29.8795
 Frc consts  --      0.2524                 0.2125                 0.2375
 IR Inten    --      0.1970                 0.5235                 1.0675

                     13                     14                     15
                      A                      A                      A
 Frequencies --    128.4033               132.7405               145.7489
 Red. masses --     18.7672                39.0605                39.9513
 Frc consts  --      0.1823                 0.4055                 0.5000
 IR Inten    --      0.8393                 0.9145                 0.7385

                     16                     17                     18
                      A                      A                      A
 Frequencies --    148.4214               152.4619               165.0688
 Red. masses --     35.0544                38.6928                32.6298
 Frc consts  --      0.4550                 0.5299                 0.5238
 IR Inten    --      2.4374                 0.3033                 0.2779

                     19                     20                     21
                      A                      A                      A
 Frequencies --    168.2783               183.5404               188.1135
 Red. masses --     38.8678                37.2807                36.1381
 Frc consts  --      0.6485                 0.7399                 0.7535
 IR Inten    --      0.3178                 2.2532                 1.0681

                     22                     23                     24
                      A                      A                      A
 Frequencies --    190.6277               200.1542               220.0278
 Red. masses --     35.0183                36.7458                45.0599
 Frc consts  --      0.7498                 0.8673                 1.2853
 IR Inten    --      0.0570                 3.0169                 0.3243

                     25                     26                     27
                      A                      A                      A
 Frequencies --    236.8519               256.2463               263.5124
 Red. masses --     34.5631                40.0909                35.0324
 Frc consts  --      1.1424                 1.5510                 1.4332
 IR Inten    --      3.3386                 0.3097                 3.2627

                     28                     29                     30
                      A                      A                      A
 Frequencies --    281.3994               287.8184               301.8114
 Red. masses --     36.1392                36.4464                35.4069
 Frc consts  --      1.6861                 1.7789                 1.9002
 IR Inten    --     23.6444                34.3950                14.6001

                     31                     32                     33
                      A                      A                      A
 Frequencies --    319.4086               328.0415               361.3940
 Red. masses --     34.4041                42.1160                18.1537
 Frc consts  --      2.0680                 2.6703                 1.3969
 IR Inten    --     21.5297                 8.3484                 3.0215

                     34                     35                     36
                      A                      A                      A
 Frequencies --    367.0691               379.0116               396.2840
 Red. masses --     39.7972                36.2328                18.9374
 Frc consts  --      3.1594                 3.0666                 1.7522
 IR Inten    --      6.0866                17.2481                14.9795

                     37                     38                     39
                      A                      A                      A
 Frequencies --    400.6752               418.7754               434.3911
 Red. masses --     25.7431                24.3899                 9.9185
 Frc consts  --      2.4350                 2.5201                 1.1027
 IR Inten    --     12.2919                42.4420                14.3580

                     40                     41                     42
                      A                      A                      A
 Frequencies --    442.7578               445.9705               452.4138
 Red. masses --     37.8718                 1.5332                 6.0633
 Frc consts  --      4.3742                 0.1797                 0.7312
 IR Inten    --     17.2212                 5.2768                29.5119

                     43                     44                     45
                      A                      A                      A
 Frequencies --    458.3070               481.4493               530.0542
 Red. masses --     27.9002                35.0052                 8.8831
 Frc consts  --      3.4528                 4.7806                 1.4705
 IR Inten    --      5.8006                25.5044               108.1558

                     46                     47                     48
                      A                      A                      A
 Frequencies --    549.9061               557.5790               940.3987
 Red. masses --     36.8209                40.4309                 1.0643
 Frc consts  --      6.5603                 7.4059                 0.5545
 IR Inten    --     65.6499                59.1389                34.8636

                     49                     50                     51
                      A                      A                      A
 Frequencies --   1022.2371              1115.6760              1885.1832
 Red. masses --      1.0109                 1.0109                 1.0185
 Frc consts  --      0.6224                 0.7414                 2.1326
 IR Inten    --      0.1014                 1.4628                15.8199

 - Thermochemistry -
 -------------------
 Temperature   298.150 Kelvin.  Pressure   1.00000 Atm.
 Atom     1 has atomic number 42 and mass  97.90550

 Molecular mass:   875.20801 amu.
 Principal axes and moments of inertia in atomic units:
                           1         2         3
     Eigenvalues --  9931.23656********************
           X            0.77103  -0.63632  -0.02453
           Y           -0.26866  -0.35998   0.89344
           Z            0.57735   0.68228   0.44851
 This molecule is an asymmetric top.
 Rotational symmetry number  1.
 Warning -- assumption of classical behavior for rotation
           may cause significant error
 Rotational temperatures (Kelvin)      0.00872     0.00334     0.00291
 Rotational constants (GHZ):           0.18172     0.06967     0.06060
    1 imaginary frequencies ignored.
 Zero-point vibrational energy     100394.2 (Joules/Mol)
                                   23.99479 (Kcal/Mol)
 Warning -- explicit consideration of  46 degrees of freedom as
           vibrations may cause significant error
 Vibrational temperatures:     32.75    59.05    77.12    90.90   103.30
          (Kelvin)            118.33   123.54   138.07   152.82   154.75
                              167.13   184.74   190.98   209.70   213.55
                              219.36   237.50   242.11   264.07   270.65
                              274.27   287.98   316.57   340.78   368.68
                              379.14   404.87   414.11   434.24   459.56
                              471.98   519.97   528.13   545.31   570.16
                              576.48   602.52   624.99   637.03   641.65
                              650.92   659.40   692.70   762.63   791.19
                              802.23  1353.02  1470.77  1605.21  2712.36

 Zero-point correction=                           0.038238 (Hartree/Particle)
 Thermal correction to Energy=                    0.064737
 Thermal correction to Enthalpy=                  0.065681
 Thermal correction to Gibbs Free Energy=        -0.021628
 Sum of electronic and zero-point Energies=          -5117.632184
 Sum of electronic and thermal Energies=             -5117.605685
 Sum of electronic and thermal Enthalpies=           -5117.604741
 Sum of electronic and thermal Free Energies=        -5117.692050

                     E (Thermal)             CV                S
                      KCal/Mol        Cal/Mol-Kelvin    Cal/Mol-Kelvin
 Total                   40.623             85.338            183.756
 Electronic               0.000              0.000              0.000
 Translational            0.889              2.981             46.184
 Rotational               0.889              2.981             37.280
 Vibrational             38.845             79.376            100.292
 Vibration     1          0.593              1.985              6.377
 Vibration     2          0.594              1.981              5.208
 Vibration     3          0.596              1.976              4.680
 Vibration     4          0.597              1.972              4.355
 Vibration     5          0.598              1.967              4.103
 Vibration     6          0.600              1.961              3.837
 Vibration     7          0.601              1.959              3.752
 Vibration     8          0.603              1.952              3.535
 Vibration     9          0.605              1.944              3.337
 Vibration    10          0.606              1.943              3.312
 Vibration    11          0.608              1.936              3.163
 Vibration    12          0.611              1.925              2.970
 Vibration    13          0.613              1.921              2.906
 Vibration    14          0.617              1.907              2.727
 Vibration    15          0.618              1.904              2.692
 Vibration    16          0.619              1.900              2.641
 Vibration    17          0.623              1.885              2.491
 Vibration    18          0.625              1.882              2.455
 Vibration    19          0.631              1.862              2.292
 Vibration    20          0.633              1.856              2.246
 Vibration    21          0.634              1.853              2.222
 Vibration    22          0.638              1.840              2.132
 Vibration    23          0.647              1.811              1.959
 Vibration    24          0.656              1.784              1.826
 Vibration    25          0.666              1.752              1.687
 Vibration    26          0.670              1.740              1.638
 Vibration    27          0.681              1.708              1.525
 Vibration    28          0.685              1.696              1.487
 Vibration    29          0.694              1.670              1.407
 Vibration    30          0.705              1.636              1.313
 Vibration    31          0.711              1.619              1.270
 Vibration    32          0.736              1.552              1.116
 Vibration    33          0.740              1.540              1.092
 Vibration    34          0.749              1.515              1.043
 Vibration    35          0.763              1.478              0.976
 Vibration    36          0.767              1.469              0.960
 Vibration    37          0.782              1.429              0.896
 Vibration    38          0.795              1.395              0.844
 Vibration    39          0.802              1.377              0.818
 Vibration    40          0.805              1.370              0.808
 Vibration    41          0.811              1.356              0.789
 Vibration    42          0.816              1.343              0.771
 Vibration    43          0.838              1.291              0.706
 Vibration    44          0.885              1.184              0.587
 Vibration    45          0.905              1.140              0.544
 Vibration    46          0.913              1.123              0.529

 Optimization completed.
    -- Stationary point found.
 Normal termination of Gaussian 16 at Fri Dec  9 12:38:04 2022.
