 Gaussian 16, Revision C.01,
 Gaussian 16:  ES64L-G16RevC.01  3-Jul-2019

 ---------------------------------------
 # opt freq b3lyp/gen nosymm pseudo=read
 ---------------------------------------

 -------------------
 Title Card Required
 -------------------
 Symbolic Z-matrix:
 Charge =  0 Multiplicity = 1

 SCF Done:  E(RB3LYP) =  -5523.98872992     A.U. after   38 cycles
 SCF Done:  E(RB3LYP) =  -5524.03035033     A.U. after   23 cycles
 SCF Done:  E(RB3LYP) =  -5524.08477685     A.U. after   23 cycles
 SCF Done:  E(RB3LYP) =  -5524.11199226     A.U. after   22 cycles
 SCF Done:  E(RB3LYP) =  -5524.12800379     A.U. after   22 cycles
 SCF Done:  E(RB3LYP) =  -5524.13779287     A.U. after   21 cycles
 SCF Done:  E(RB3LYP) =  -5524.14372451     A.U. after   20 cycles
 SCF Done:  E(RB3LYP) =  -5524.14928054     A.U. after   21 cycles
 SCF Done:  E(RB3LYP) =  -5524.15323835     A.U. after   21 cycles
 SCF Done:  E(RB3LYP) =  -5524.15510165     A.U. after   20 cycles
 SCF Done:  E(RB3LYP) =  -5524.16019571     A.U. after   14 cycles
 SCF Done:  E(RB3LYP) =  -5524.16019574     A.U. after   15 cycles
 SCF Done:  E(RB3LYP) =  -5524.16019555     A.U. after   14 cycles
 SCF Done:  E(RB3LYP) =  -5524.16019308     A.U. after   14 cycles
 SCF Done:  E(RB3LYP) =  -5524.16019616     A.U. after   15 cycles
 SCF Done:  E(RB3LYP) =  -5524.16019679     A.U. after   14 cycles
 SCF Done:  E(RB3LYP) =  -5524.16019463     A.U. after   15 cycles
 SCF Done:  E(RB3LYP) =  -5524.16019714     A.U. after   15 cycles
 SCF Done:  E(RB3LYP) =  -5524.16019722     A.U. after   12 cycles
 Optimization completed.
    -- Stationary point found.

 1\1\GINC-NODE13-IB\FOpt\RB3LYP\Gen\C3Mo6O3S12\CHESAGAR\09-Dec-2022\0\\
 # opt freq b3lyp/gen nosymm pseudo=read\\Title Card Required\\0,1\Mo,0
 .2227777283,1.0258937175,11.7514622978\S,0.5320908818,3.0336574441,12.
 7351860855\S,-2.0000633694,0.4072632951,12.2059147729\S,-0.06174906,1.
 1611838337,9.3690441885\S,2.2647292899,0.0257899255,11.7677271872\Mo,-
 2.2065463449,1.7076333815,10.2986532478\S,-3.2920968836,1.5052899352,8
 .1709544819\S,-2.3133869238,3.8094329635,11.1769237484\Mo,0.0030492721
 ,3.2802548678,10.3961028731\S,-0.4027663535,4.0985116924,7.9164519426\

 Normal termination of Gaussian 16 at Fri Dec  9 13:05:17 2022.

 ------------------------------------------------------------------
 #N Geom=AllCheck Guess=TCheck SCRF=Check GenChk RB3LYP/ChkBas Freq
 ------------------------------------------------------------------

 Structure from the checkpoint file:  "/home/chesagar/scratch/Gau-194206.chk"
 -------------------
 Title Card Required
 -------------------
 Charge =  0 Multiplicity = 1

                          Input orientation:
 ---------------------------------------------------------------------
 Center     Atomic      Atomic             Coordinates (Angstroms)
 Number     Number       Type             X           Y           Z
 ---------------------------------------------------------------------
      1         42           0        0.222778    1.025894   11.751462
      2         16           0        0.532091    3.033657   12.735186
      3         16           0       -2.000063    0.407263   12.205915
      4         16           0       -0.061749    1.161184    9.369044
      5         16           0        2.264729    0.025790   11.767727
      6         42           0       -2.206546    1.707633   10.298653
      7         16           0       -3.292097    1.505290    8.170954
      8         16           0       -2.313387    3.809433   11.176924
      9         42           0        0.003049    3.280255   10.396103
     10         16           0       -0.402766    4.098512    7.916452
     11         16           0        2.198313    3.893237    9.739569
     12         42           0        3.180479    1.920113   10.568906
     13         42           0       -2.533563    3.656636    7.402834
     14         16           0        4.708549    2.586076   11.872553
     15         16           0        4.113543    1.055186    8.878265
     16         16           0       -3.750800    5.327790    8.269288
     17         16           0       -2.789967    3.706888    5.302356
     18         42           0       -4.401423    3.300513    9.587474
     19          6           0       -5.334232    4.669382   10.797140
     20          6           0       -6.016183    3.066162    8.374491
     21          6           0       -5.271195    1.877835   10.751479
     22          8           0       -5.865038    5.418279   11.486529
     23          8           0       -6.915900    2.944218    7.671298
     24          8           0       -5.837673    1.101369   11.392115
 ---------------------------------------------------------------------

 SCF Done:  E(RB3LYP) =  -5524.16019722     A.U. after    3 cycles

 Alpha  occ. eigenvalues --  -88.93336 -88.91169 -88.91084 -88.91005 -88.90786
 Alpha  occ. eigenvalues --  -88.90178 -88.89673 -88.89272 -88.88983 -88.88133
 Alpha  occ. eigenvalues --  -88.87855 -88.87708 -19.26401 -19.26291 -19.25259
 Alpha  occ. eigenvalues --  -10.33708 -10.33580 -10.33106  -8.00876  -7.98827
 Alpha  occ. eigenvalues --   -7.98681  -7.98588  -7.98557  -7.98077  -7.97585
 Alpha  occ. eigenvalues --   -7.97196  -7.96770  -7.95895  -7.95774  -7.95387
 Alpha  occ. eigenvalues --   -5.96916  -5.96832  -5.96755  -5.94850  -5.94760
 Alpha  occ. eigenvalues --   -5.94736  -5.94712  -5.94694  -5.94613  -5.94570
 Alpha  occ. eigenvalues --   -5.94535  -5.94529  -5.94510  -5.94468  -5.94449
 Alpha  occ. eigenvalues --   -5.94119  -5.94063  -5.93866  -5.93643  -5.93570
 Alpha  occ. eigenvalues --   -5.93338  -5.93211  -5.93202  -5.92969  -5.92897
 Alpha  occ. eigenvalues --   -5.92750  -5.92501  -5.91998  -5.91820  -5.91795
 Alpha  occ. eigenvalues --   -5.91751  -5.91713  -5.91579  -5.91514  -5.91349
 Alpha  occ. eigenvalues --   -5.91162  -2.58424  -2.57765  -2.57341  -2.56492
 Alpha  occ. eigenvalues --   -2.56435  -2.51020  -1.61415  -1.60912  -1.60862
 Alpha  occ. eigenvalues --   -1.60483  -1.60337  -1.60188  -1.59860  -1.59368
 Alpha  occ. eigenvalues --   -1.59217  -1.59145  -1.58767  -1.58630  -1.58216
 Alpha  occ. eigenvalues --   -1.58132  -1.57630  -1.53719  -1.53484  -1.53228
 Alpha  occ. eigenvalues --   -1.16685  -1.16555  -1.15460  -0.76869  -0.74752
 Alpha  occ. eigenvalues --   -0.74036  -0.73696  -0.73045  -0.72796  -0.71858
 Alpha  occ. eigenvalues --   -0.71095  -0.70649  -0.70286  -0.69774  -0.69061
 Alpha  occ. eigenvalues --   -0.59890  -0.59010  -0.58490  -0.49669  -0.48920
 Alpha  occ. eigenvalues --   -0.48895  -0.48600  -0.48181  -0.47950  -0.47582
 Alpha  occ. eigenvalues --   -0.46681  -0.46397  -0.43804  -0.43174  -0.42957
 Alpha  occ. eigenvalues --   -0.41950  -0.41479  -0.40872  -0.40537  -0.40136
 Alpha  occ. eigenvalues --   -0.39424  -0.38832  -0.38304  -0.38140  -0.37785
 Alpha  occ. eigenvalues --   -0.37581  -0.37324  -0.37046  -0.36801  -0.36419
 Alpha  occ. eigenvalues --   -0.36275  -0.36094  -0.35416  -0.34964  -0.34642
 Alpha  occ. eigenvalues --   -0.34289  -0.33838  -0.33792  -0.33076  -0.32448
 Alpha  occ. eigenvalues --   -0.31577  -0.31266  -0.30756  -0.30271  -0.29581
 Alpha  occ. eigenvalues --   -0.29029  -0.28799  -0.28331  -0.27838  -0.26824
 Alpha  occ. eigenvalues --   -0.26718  -0.26259  -0.25055  -0.23481
 Alpha virt. eigenvalues --   -0.17966  -0.17139  -0.16988  -0.16214  -0.15325
 Alpha virt. eigenvalues --   -0.15036  -0.14781  -0.13958  -0.13919  -0.13120
 Alpha virt. eigenvalues --   -0.12535  -0.12250  -0.11227  -0.10931  -0.10322

 Mulliken charges:
               1
     1  Mo  -0.054417
     2  S    0.147896
     3  S   -0.036266
     4  S    0.323006
     5  S   -0.068584
     6  Mo  -0.040687
     7  S    0.065444
     8  S    0.230619
     9  Mo  -0.418239
    10  S   -0.089336
    11  S    0.028153
    12  Mo   0.248610
    13  Mo   0.381258
    14  S   -0.101272
    15  S   -0.104281
    16  S    0.057168
    17  S   -0.184595
    18  Mo  -0.469691
    19  C    0.245908
    20  C    0.265103
    21  C    0.243102
    22  O   -0.214092
    23  O   -0.215441
    24  O   -0.239366
 Sum of Mulliken charges =  -0.00000

 Dipole moment (field-independent basis, Debye):
    X=             -0.2453    Y=             -2.0272    Z=              2.5519  Tot=              3.2683
 Quadrupole moment (field-independent basis, Debye-Ang):
   XX=           -332.3034   YY=           -337.0373   ZZ=           -281.9925
   XY=              1.7119   XZ=             -4.6177   YZ=            -10.6318

  Exact polarizability:     830.610     -85.165     395.336      90.797     -58.190     519.031
 Approx polarizability:    2245.027    -128.912    1363.456     160.858     -98.028    1630.582

                      1                      2                      3
                      A                      A                      A
 Frequencies --     13.9765                34.3804                43.1907
 Red. masses --     32.4865                28.2783                19.8659
 Frc consts  --      0.0037                 0.0197                 0.0218
 IR Inten    --      0.0262                 0.0297                 0.2835

                      4                      5                      6
                      A                      A                      A
 Frequencies --     52.9377                59.1553                61.7086
 Red. masses --     23.7484                24.3884                28.2145
 Frc consts  --      0.0392                 0.0503                 0.0633
 IR Inten    --      0.5700                 1.8079                 0.1100

                      7                      8                      9
                      A                      A                      A
 Frequencies --     67.2183                77.2257                79.9473
 Red. masses --     35.8629                17.0078                19.9985
 Frc consts  --      0.0955                 0.0598                 0.0753
 IR Inten    --      0.3899                 0.1149                 0.3738

                     10                     11                     12
                      A                      A                      A
 Frequencies --     81.4821                84.9039                89.2759
 Red. masses --     27.3709                35.9797                27.0618
 Frc consts  --      0.1071                 0.1528                 0.1271
 IR Inten    --      0.1257                 3.8497                 0.2932

                     13                     14                     15
                      A                      A                      A
 Frequencies --     91.4440               100.5683               109.3485
 Red. masses --     21.1003                31.4406                41.2822
 Frc consts  --      0.1040                 0.1874                 0.2908
 IR Inten    --      0.5052                 0.2538                 0.3198

                     16                     17                     18
                      A                      A                      A
 Frequencies --    114.5713               118.0007               128.1649
 Red. masses --     36.4050                34.2183                35.4396
 Frc consts  --      0.2816                 0.2807                 0.3430
 IR Inten    --      0.1022                 0.3181                 0.0991

                     19                     20                     21
                      A                      A                      A
 Frequencies --    143.4049               147.3816               150.5713
 Red. masses --     38.0215                38.8856                42.5455
 Frc consts  --      0.4607                 0.4977                 0.5683
 IR Inten    --      2.4209                 0.3526                 6.3475

                     22                     23                     24
                      A                      A                      A
 Frequencies --    152.4621               157.6079               165.2400
 Red. masses --     41.6889                38.3670                39.2125
 Frc consts  --      0.5709                 0.5615                 0.6308
 IR Inten    --      0.6349                 1.5454                 5.0645

                     25                     26                     27
                      A                      A                      A
 Frequencies --    174.0190               176.7315               184.1599
 Red. masses --     38.5081                36.9515                35.7106
 Frc consts  --      0.6871                 0.6800                 0.7136
 IR Inten    --      0.4186                 3.4075                 0.8764

                     28                     29                     30
                      A                      A                      A
 Frequencies --    189.9723               200.5050               206.5569
 Red. masses --     40.8244                36.5737                41.3606
 Frc consts  --      0.8681                 0.8663                 1.0397
 IR Inten    --      4.1294                 0.2622                 4.6943

                     31                     32                     33
                      A                      A                      A
 Frequencies --    224.0969               233.0919               253.1023
 Red. masses --     35.8639                45.9473                40.3380
 Frc consts  --      1.0612                 1.4708                 1.5225
 IR Inten    --      1.8394                 6.1958                 2.0951

                     34                     35                     36
                      A                      A                      A
 Frequencies --    264.8505               269.8675               277.3397
 Red. masses --     36.4765                36.4930                35.4791
 Frc consts  --      1.5075                 1.5659                 1.6079
 IR Inten    --      7.3430                 8.0790                 3.3584

                     37                     38                     39
                      A                      A                      A
 Frequencies --    281.0157               287.8855               319.8067
 Red. masses --     37.7002                34.3314                35.1246
 Frc consts  --      1.7541                 1.6764                 2.1166
 IR Inten    --      2.1034                 5.9551                47.5459

                     40                     41                     42
                      A                      A                      A
 Frequencies --    324.9416               328.6620               352.9118
 Red. masses --     36.2409                40.2203                41.3448
 Frc consts  --      2.2545                 2.5597                 3.0339
 IR Inten    --      6.1355                 0.2811                12.2620

                     43                     44                     45
                      A                      A                      A
 Frequencies --    367.4232               369.8406               391.8903
 Red. masses --     37.6619                30.3511                15.5730
 Frc consts  --      2.9956                 2.4460                 1.4091
 IR Inten    --     14.8530                 2.5340                 5.2898

                     46                     47                     48
                      A                      A                      A
 Frequencies --    397.1334               409.0838               409.5895
 Red. masses --     16.6525                30.3630                17.7751
 Frc consts  --      1.5474                 2.9938                 1.7570
 IR Inten    --     24.9917                29.1841                14.9981

                     49                     50                     51
                      A                      A                      A
 Frequencies --    416.3253               427.7174               431.0656
 Red. masses --     22.6432                34.7723                24.3639
 Frc consts  --      2.3123                 3.7480                 2.6674
 IR Inten    --      5.8465                56.4069                44.7378

                     52                     53                     54
                      A                      A                      A
 Frequencies --    433.1327               439.1568               443.1110
 Red. masses --     36.8029                34.9254                17.3397
 Frc consts  --      4.0679                 3.9685                 2.0059
 IR Inten    --      2.8542                 2.3727                 9.3515

                     55                     56                     57
                      A                      A                      A
 Frequencies --    455.9802               460.1736               473.2981
 Red. masses --     24.3310                20.2308                16.1376
 Frc consts  --      2.9806                 2.5241                 2.1299
 IR Inten    --     21.5629                 3.7433                 4.6426

                     58                     59                     60
                      A                      A                      A
 Frequencies --    507.7094               538.0423               548.9379
 Red. masses --     13.5817                13.4449                36.7352
 Frc consts  --      2.0627                 2.2932                 6.5220
 IR Inten    --     12.7249                28.0010               116.3435

                     61                     62                     63
                      A                      A                      A
 Frequencies --    555.6187               558.5506               568.8540
 Red. masses --     40.5258                37.2772                14.0301
 Frc consts  --      7.3712                 6.8520                 2.6749
 IR Inten    --     43.5711               119.8729                87.6550

                     64                     65                     66
                      A                      A                      A
 Frequencies --   2051.5717              2094.4798              2123.1261
 Red. masses --     13.3880                13.3991                13.3760
 Frc consts  --     33.2001                34.6321                35.5245
 IR Inten    --    648.6665               678.6584              2415.7072

 - Thermochemistry -
 -------------------
 Temperature   298.150 Kelvin.  Pressure   1.00000 Atm.
 Atom     1 has atomic number 42 and mass  97.90550

 Molecular mass:  1055.08261 amu.
 Principal axes and moments of inertia in atomic units:
                           1         2         3
     Eigenvalues --  ******************************
           X            0.93284  -0.35367   0.06872
           Y           -0.21770  -0.40135   0.88968
           Z            0.28707   0.84489   0.45139
 This molecule is an asymmetric top.
 Rotational symmetry number  1.
 Warning -- assumption of classical behavior for rotation
           may cause significant error
 Rotational temperatures (Kelvin)      0.00628     0.00224     0.00195
 Rotational constants (GHZ):           0.13081     0.04671     0.04068
 Zero-point vibrational energy     136048.3 (Joules/Mol)
                                   32.51632 (Kcal/Mol)
 Warning -- explicit consideration of  63 degrees of freedom as
           vibrations may cause significant error
 Vibrational temperatures:     20.11    49.47    62.14    76.17    85.11
          (Kelvin)             88.78    96.71   111.11   115.03   117.23
                              122.16   128.45   131.57   144.70   157.33
                              164.84   169.78   184.40   206.33   212.05
                              216.64   219.36   226.76   237.74   250.37
                              254.28   264.97   273.33   288.48   297.19
                              322.43   335.37   364.16   381.06   388.28
                              399.03   404.32   414.20   460.13   467.52
                              472.87   507.76   528.64   532.12   563.84
                              571.39   588.58   589.31   599.00   615.39
                              620.21   623.18   631.85   637.54   656.05
                              662.09   680.97   730.48   774.12   789.80
                              799.41   803.63   818.45  2951.75  3013.49
                             3054.70

 Zero-point correction=                           0.051818 (Hartree/Particle)
 Thermal correction to Energy=                    0.086781
 Thermal correction to Enthalpy=                  0.087725
 Thermal correction to Gibbs Free Energy=        -0.018752
 Sum of electronic and zero-point Energies=          -5524.108379
 Sum of electronic and thermal Energies=             -5524.073416
 Sum of electronic and thermal Enthalpies=           -5524.072472
 Sum of electronic and thermal Free Energies=        -5524.178949

                     E (Thermal)             CV                S
                      KCal/Mol        Cal/Mol-Kelvin    Cal/Mol-Kelvin
 Total                   54.456            112.417            224.100
 Electronic               0.000              0.000              0.000
 Translational            0.889              2.981             46.741
 Rotational               0.889              2.981             38.400
 Vibrational             52.679            106.456            138.958
 Vibration     1          0.593              1.986              7.346
 Vibration     2          0.594              1.983              5.559
 Vibration     3          0.595              1.980              5.107
 Vibration     4          0.596              1.976              4.705
 Vibration     5          0.597              1.974              4.485
 Vibration     6          0.597              1.973              4.402
 Vibration     7          0.598              1.970              4.233
 Vibration     8          0.599              1.964              3.960
 Vibration     9          0.600              1.963              3.892
 Vibration    10          0.600              1.962              3.855
 Vibration    11          0.601              1.960              3.774
 Vibration    12          0.602              1.957              3.676
 Vibration    13          0.602              1.955              3.629
 Vibration    14          0.604              1.949              3.443
 Vibration    15          0.606              1.942              3.280
 Vibration    16          0.608              1.937              3.190
 Vibration    17          0.608              1.934              3.133
 Vibration    18          0.611              1.925              2.973
 Vibration    19          0.616              1.910              2.758
 Vibration    20          0.617              1.906              2.706
 Vibration    21          0.618              1.902              2.665
 Vibration    22          0.619              1.900              2.641
 Vibration    23          0.621              1.894              2.578
 Vibration    24          0.624              1.885              2.489
 Vibration    25          0.627              1.874              2.392
 Vibration    26          0.628              1.871              2.363
 Vibration    27          0.631              1.861              2.286
 Vibration    28          0.633              1.854              2.228
 Vibration    29          0.638              1.839              2.128
 Vibration    30          0.641              1.831              2.074
 Vibration    31          0.649              1.804              1.926
 Vibration    32          0.654              1.790              1.855
 Vibration    33          0.664              1.758              1.709
 Vibration    34          0.671              1.737              1.630
 Vibration    35          0.674              1.729              1.597
 Vibration    36          0.678              1.715              1.550
 Vibration    37          0.681              1.709              1.527
 Vibration    38          0.685              1.696              1.486
 Vibration    39          0.706              1.636              1.311
 Vibration    40          0.709              1.626              1.285
 Vibration    41          0.712              1.618              1.267
 Vibration    42          0.729              1.569              1.153
 Vibration    43          0.740              1.539              1.091
 Vibration    44          0.742              1.534              1.080
 Vibration    45          0.759              1.488              0.993
 Vibration    46          0.764              1.476              0.973
 Vibration    47          0.773              1.451              0.930
 Vibration    48          0.774              1.449              0.928
 Vibration    49          0.780              1.435              0.905
 Vibration    50          0.789              1.410              0.866
 Vibration    51          0.792              1.403              0.855
 Vibration    52          0.794              1.398              0.848
 Vibration    53          0.799              1.385              0.829
 Vibration    54          0.803              1.376              0.817
 Vibration    55          0.814              1.348              0.778
 Vibration    56          0.818              1.338              0.766
 Vibration    57          0.830              1.309              0.728
 Vibration    58          0.863              1.233              0.639
 Vibration    59          0.893              1.166              0.570
 Vibration    60          0.904              1.142              0.546
 Vibration    61          0.911              1.127              0.533
 Vibration    62          0.914              1.121              0.527
 Vibration    63          0.925              1.099              0.506

                           ! Non-Optimized Parameters !

 1\1\GINC-NODE13-IB\Freq\RB3LYP\Gen\C3Mo6O3S12\CHESAGAR\09-Dec-2022\0\\
 #N Geom=AllCheck Guess=TCheck SCRF=Check GenChk RB3LYP/ChkBas Freq\\Ti
 tle Card Required\\0,1\Mo,0.2227777283,1.0258937175,11.7514622978\S,0.
 5320908818,3.0336574441,12.7351860855\S,-2.0000633694,0.4072632951,12.
 2059147729\S,-0.06174906,1.1611838337,9.3690441885\S,2.2647292899,0.02
 57899255,11.7677271872\Mo,-2.2065463449,1.7076333815,10.2986532478\S,-
 3.2920968836,1.5052899352,8.1709544819\S,-2.3133869238,3.8094329635,11
 .1769237484\Mo,0.0030492721,3.2802548678,10.3961028731\S,-0.4027663535

 Normal termination of Gaussian 16 at Fri Dec  9 13:09:59 2022.
