 Gaussian 16, Revision C.01,
 Gaussian 16:  ES64L-G16RevC.01  3-Jul-2019

 ---------------------------------------
 # opt freq b3lyp/gen nosymm pseudo=read
 ---------------------------------------

 -------------------
 Title Card Required
 -------------------
 Symbolic Z-matrix:
 Charge =  0 Multiplicity = 1

 SCF Done:  E(RB3LYP) =  -5410.78769044     A.U. after   31 cycles
 SCF Done:  E(RB3LYP) =  -5410.78989589     A.U. after   19 cycles
 SCF Done:  E(RB3LYP) =  -5410.79074022     A.U. after   20 cycles
 SCF Done:  E(RB3LYP) =  -5410.79094531     A.U. after   18 cycles
 SCF Done:  E(RB3LYP) =  -5410.79105014     A.U. after   18 cycles
 SCF Done:  E(RB3LYP) =  -5410.79109503     A.U. after   17 cycles
 SCF Done:  E(RB3LYP) =  -5410.79113559     A.U. after   17 cycles
 SCF Done:  E(RB3LYP) =  -5410.79116055     A.U. after   17 cycles
 SCF Done:  E(RB3LYP) =  -5410.79117375     A.U. after   16 cycles
 SCF Done:  E(RB3LYP) =  -5410.79117693     A.U. after   15 cycles
 SCF Done:  E(RB3LYP) =  -5410.79117934     A.U. after   15 cycles
 SCF Done:  E(RB3LYP) =  -5410.79118030     A.U. after   15 cycles
 Optimization completed.
    -- Stationary point found.
 Normal termination of Gaussian 16 at Fri Dec  9 13:11:21 2022.

 ------------------------------------------------------------------
 #N Geom=AllCheck Guess=TCheck SCRF=Check GenChk RB3LYP/ChkBas Freq
 ------------------------------------------------------------------

 Structure from the checkpoint file:  "/home/chesagar/scratch/Gau-89318.chk"
 -------------------
 Title Card Required
 -------------------
 Charge =  0 Multiplicity = 1

                          Input orientation:
 ---------------------------------------------------------------------
 Center     Atomic      Atomic             Coordinates (Angstroms)
 Number     Number       Type             X           Y           Z
 ---------------------------------------------------------------------
      1         42           0        0.229622    1.006227   11.733531
      2         16           0        0.532458    3.015523   12.715787
      3         16           0       -1.992773    0.387630   12.192853
      4         16           0       -0.070515    1.123556    9.349237
      5         16           0        2.279018    0.028377   11.760743
      6         42           0       -2.216310    1.672952   10.273948
      7         16           0       -3.372910    1.460648    8.176823
      8         16           0       -2.331134    3.784817   11.191355
      9         42           0       -0.020794    3.247111   10.380767
     10         16           0       -0.414745    3.974959    7.836833
     11         16           0        2.159688    3.895806    9.709207
     12         42           0        3.168183    1.957361   10.588231
     13         42           0       -2.568821    3.627070    7.390265
     14         16           0        4.639081    2.667751   11.934203
     15         16           0        4.173851    1.110684    8.930142
     16         16           0       -3.666790    5.329949    8.393592
     17         16           0       -2.934704    3.735418    5.306442
     18         42           0       -4.308025    3.271794    9.562333
     19          6           0       -5.939865    3.108391    8.346117
     20          6           0       -5.236170    1.898831   10.759005
     21          8           0       -6.843290    3.022107    7.642798
     22          8           0       -5.832587    1.165997   11.422635
 ---------------------------------------------------------------------

 SCF Done:  E(RB3LYP) =  -5410.79118030     A.U. after    1 cycles

 Alpha  occ. eigenvalues --  -88.93026 -88.91163 -88.90899 -88.90498 -88.90327
 Alpha  occ. eigenvalues --  -88.89998 -88.89448 -88.89050 -88.88735 -88.87929
 Alpha  occ. eigenvalues --  -88.87467 -88.86889 -19.26635 -19.25981 -10.33784
 Alpha  occ. eigenvalues --  -10.33411  -8.00567  -7.98693  -7.98641  -7.98301
 Alpha  occ. eigenvalues --   -7.97895  -7.97894  -7.97358  -7.96974  -7.96521
 Alpha  occ. eigenvalues --   -7.95686  -7.95383  -7.94645  -5.96608  -5.96530
 Alpha  occ. eigenvalues --   -5.96440  -5.94691  -5.94675  -5.94668  -5.94607
 Alpha  occ. eigenvalues --   -5.94570  -5.94525  -5.94332  -5.94245  -5.94161
 Alpha  occ. eigenvalues --   -5.93947  -5.93938  -5.93930  -5.93878  -5.93697
 Alpha  occ. eigenvalues --   -5.93686  -5.93418  -5.93342  -5.93112  -5.92991
 Alpha  occ. eigenvalues --   -5.92978  -5.92748  -5.92649  -5.92505  -5.92245
 Alpha  occ. eigenvalues --   -5.91775  -5.91610  -5.91519  -5.91411  -5.91371
 Alpha  occ. eigenvalues --   -5.91171  -5.90732  -5.90631  -5.90426  -2.58199
 Alpha  occ. eigenvalues --   -2.57594  -2.57129  -2.56035  -2.56015  -2.51705
 Alpha  occ. eigenvalues --   -1.61244  -1.60694  -1.60651  -1.60269  -1.60100
 Alpha  occ. eigenvalues --   -1.59922  -1.59676  -1.59092  -1.58939  -1.58790
 Alpha  occ. eigenvalues --   -1.58398  -1.58138  -1.57916  -1.57774  -1.57311
 Alpha  occ. eigenvalues --   -1.54209  -1.54131  -1.53765  -1.16870  -1.16077
 Alpha  occ. eigenvalues --   -0.76577  -0.74496  -0.73988  -0.73366  -0.72758
 Alpha  occ. eigenvalues --   -0.72556  -0.71605  -0.70863  -0.70336  -0.70068
 Alpha  occ. eigenvalues --   -0.69400  -0.68686  -0.59854  -0.59016  -0.49578
 Alpha  occ. eigenvalues --   -0.48818  -0.48613  -0.48459  -0.48115  -0.47021
 Alpha  occ. eigenvalues --   -0.43597  -0.42874  -0.42745  -0.41688  -0.41311
 Alpha  occ. eigenvalues --   -0.40669  -0.40316  -0.40153  -0.39268  -0.38668
 Alpha  occ. eigenvalues --   -0.38105  -0.38023  -0.37562  -0.37408  -0.37266
 Alpha  occ. eigenvalues --   -0.36915  -0.36550  -0.36467  -0.36076  -0.35717
 Alpha  occ. eigenvalues --   -0.35195  -0.34836  -0.34387  -0.34092  -0.33656
 Alpha  occ. eigenvalues --   -0.33356  -0.32826  -0.32161  -0.31392  -0.31109
 Alpha  occ. eigenvalues --   -0.30545  -0.30127  -0.29370  -0.28937  -0.28568
 Alpha  occ. eigenvalues --   -0.28131  -0.27867  -0.26610  -0.26496  -0.25987
 Alpha  occ. eigenvalues --   -0.24754  -0.23248
 Alpha virt. eigenvalues --   -0.17689  -0.16858  -0.16656  -0.15962  -0.15019
 Alpha virt. eigenvalues --   -0.14740  -0.14607  -0.14450  -0.13642  -0.13486
 Alpha virt. eigenvalues --   -0.12510  -0.11971  -0.11458  -0.10942  -0.10556

 Mulliken charges:
               1
     1  Mo  -0.065243
     2  S    0.152036
     3  S   -0.045327
     4  S    0.320070
     5  S   -0.066728
     6  Mo   0.009284
     7  S    0.069021
     8  S    0.207768
     9  Mo  -0.413723
    10  S   -0.097829
    11  S    0.026661
    12  Mo   0.243811
    13  Mo   0.407526
    14  S   -0.103127
    15  S   -0.106274
    16  S    0.033425
    17  S   -0.199360
    18  Mo  -0.391650
    19  C    0.239309
    20  C    0.210944
    21  O   -0.205332
    22  O   -0.225260
 Sum of Mulliken charges =  -0.00000

 Dipole moment (field-independent basis, Debye):
    X=             -1.4009    Y=             -1.7827    Z=              3.0404  Tot=              3.7927
 Quadrupole moment (field-independent basis, Debye-Ang):
   XX=           -314.4790   YY=           -324.7383   ZZ=           -263.2026
   XY=             -3.7187   XZ=            -19.5609   YZ=             -4.9837

  Exact polarizability:     791.978     -58.852     376.479     110.146     -72.502     510.180
 Approx polarizability:    2200.024     -86.288    1328.836     179.764    -142.728    1620.475

                      1                      2                      3
                      A                      A                      A
 Frequencies --     15.9446                37.8410                45.5477
 Red. masses --     33.3856                28.3782                21.6754
 Frc consts  --      0.0050                 0.0239                 0.0265
 IR Inten    --      0.0146                 0.0474                 0.2873

                      4                      5                      6
                      A                      A                      A
 Frequencies --     55.0822                63.9076                65.1442
 Red. masses --     29.0193                31.4131                20.2348
 Frc consts  --      0.0519                 0.0756                 0.0506
 IR Inten    --      1.4671                 1.6055                 0.0771

                      7                      8                      9
                      A                      A                      A
 Frequencies --     68.7996                80.4332                86.1701
 Red. masses --     30.6837                34.4427                30.0314
 Frc consts  --      0.0856                 0.1313                 0.1314
 IR Inten    --      0.5839                 0.7950                 0.9257

                     10                     11                     12
                      A                      A                      A
 Frequencies --     87.8276                91.0403                98.9448
 Red. masses --     33.3659                20.7431                31.9961
 Frc consts  --      0.1516                 0.1013                 0.1846
 IR Inten    --      1.8325                 0.2582                 0.2477

                     13                     14                     15
                      A                      A                      A
 Frequencies --    111.4156               113.4856               120.1144
 Red. masses --     42.8639                39.6133                34.6534
 Frc consts  --      0.3135                 0.3006                 0.2946
 IR Inten    --      0.1181                 0.2244                 0.2036

                     16                     17                     18
                      A                      A                      A
 Frequencies --    129.2009               138.4440               147.0369
 Red. masses --     38.9076                38.6394                39.0639
 Frc consts  --      0.3827                 0.4363                 0.4976
 IR Inten    --      0.0737                 1.0474                 0.1016

                     19                     20                     21
                      A                      A                      A
 Frequencies --    152.0208               153.1083               158.4477
 Red. masses --     41.3896                41.4407                37.7665
 Frc consts  --      0.5636                 0.5724                 0.5586
 IR Inten    --      4.0274                 0.0846                 0.2841

                     22                     23                     24
                      A                      A                      A
 Frequencies --    165.7647               175.8815               176.9750
 Red. masses --     42.7476                38.7283                36.7250
 Frc consts  --      0.6921                 0.7059                 0.6777
 IR Inten    --      4.9952                 1.0432                 2.1670

                     25                     26                     27
                      A                      A                      A
 Frequencies --    185.7037               194.3769               202.0732
 Red. masses --     35.2977                42.9757                36.7674
 Frc consts  --      0.7172                 0.9567                 0.8846
 IR Inten    --      0.5887                 4.2873                 1.9166

                     28                     29                     30
                      A                      A                      A
 Frequencies --    204.7942               221.5100               233.4665
 Red. masses --     41.2998                34.7445                49.1234
 Frc consts  --      1.0205                 1.0044                 1.5776
 IR Inten    --      4.5560                 2.5402                 2.4614

                     31                     32                     33
                      A                      A                      A
 Frequencies --    252.2510               268.0102               269.9730
 Red. masses --     40.6610                37.7947                36.4191
 Frc consts  --      1.5244                 1.5995                 1.5639
 IR Inten    --      2.1803                 8.6625                14.5584

                     34                     35                     36
                      A                      A                      A
 Frequencies --    274.2701               281.4533               299.2247
 Red. masses --     35.1703                38.9846                36.1358
 Frc consts  --      1.5588                 1.8195                 1.9063
 IR Inten    --      2.9375                 0.4741                 0.5385

                     37                     38                     39
                      A                      A                      A
 Frequencies --    318.3310               322.3495               326.7524
 Red. masses --     35.2981                35.4802                40.9316
 Frc consts  --      2.1075                 2.1722                 2.5748
 IR Inten    --     37.9939                 6.1169                 2.0670

                     40                     41                     42
                      A                      A                      A
 Frequencies --    349.8910               368.2529               381.6112
 Red. masses --     41.8031                37.0643                30.2956
 Frc consts  --      3.0153                 2.9614                 2.5994
 IR Inten    --     10.5471                11.9059                 4.2681

                     43                     44                     45
                      A                      A                      A
 Frequencies --    387.0568               397.8352               407.7813
 Red. masses --     17.8685                16.9767                26.9616
 Frc consts  --      1.5772                 1.5831                 2.6415
 IR Inten    --     23.0910                39.8643                 9.1656

                     46                     47                     48
                      A                      A                      A
 Frequencies --    413.0548               423.5468               431.2899
 Red. masses --     30.2755                27.4579                38.1309
 Frc consts  --      3.0434                 2.9022                 4.1789
 IR Inten    --     20.0963                38.2102                53.3476

                     49                     50                     51
                      A                      A                      A
 Frequencies --    434.3881               438.3691               447.8393
 Red. masses --     37.9562                34.5668                15.1312
 Frc consts  --      4.2198                 3.9137                 1.7880
 IR Inten    --      8.2107                 1.5655                11.1182

                     52                     53                     54
                      A                      A                      A
 Frequencies --    456.0385               458.7725               495.6949
 Red. masses --     21.1852                26.0493                15.6768
 Frc consts  --      2.5959                 3.2303                 2.2695
 IR Inten    --     19.3262                 6.0208                 3.5271

                     55                     56                     57
                      A                      A                      A
 Frequencies --    543.1465               548.9453               555.2865
 Red. masses --     13.8100                34.0278                40.4635
 Frc consts  --      2.4004                 6.0415                 7.3510
 IR Inten    --     88.9731                66.2983                45.9631

                     58                     59                     60
                      A                      A                      A
 Frequencies --    558.5114              2049.7961              2107.1717
 Red. masses --     36.2155                13.4015                13.3928
 Frc consts  --      6.6559                33.1760                35.0365
 IR Inten    --    103.1435               849.1416              1928.8175

 - Thermochemistry -
 -------------------
 Temperature   298.150 Kelvin.  Pressure   1.00000 Atm.
 Atom     1 has atomic number 42 and mass  97.90550

 Molecular mass:  1027.08769 amu.
 Principal axes and moments of inertia in atomic units:
                           1         2         3
     Eigenvalues --  ******************************
           X            0.92055  -0.39059  -0.00486
           Y           -0.19258  -0.46463   0.86431
           Z            0.33985   0.79471   0.50294
 This molecule is an asymmetric top.
 Rotational symmetry number  1.
 Warning -- assumption of classical behavior for rotation
           may cause significant error
 Rotational temperatures (Kelvin)      0.00686     0.00243     0.00208
 Rotational constants (GHZ):           0.14293     0.05062     0.04325
 Zero-point vibrational energy     113928.7 (Joules/Mol)
                                   27.22962 (Kcal/Mol)
 Warning -- explicit consideration of  58 degrees of freedom as
           vibrations may cause significant error
 Vibrational temperatures:     22.94    54.44    65.53    79.25    91.95
          (Kelvin)             93.73    98.99   115.73   123.98   126.36
                              130.99   142.36   160.30   163.28   172.82
                              185.89   199.19   211.55   218.72   220.29
                              227.97   238.50   253.05   254.63   267.19
                              279.66   290.74   294.65   318.70   335.91
                              362.93   385.61   388.43   394.61   404.95
                              430.52   458.01   463.79   470.12   503.42
                              529.83   549.05   556.89   572.40   586.71
                              594.29   609.39   620.53   624.99   630.72
                              644.34   656.14   660.07   713.19   781.47
                              789.81   798.93   803.57  2949.20  3031.75

 Zero-point correction=                           0.043393 (Hartree/Particle)
 Thermal correction to Energy=                    0.076029
 Thermal correction to Enthalpy=                  0.076974
 Thermal correction to Gibbs Free Energy=        -0.024127
 Sum of electronic and zero-point Energies=          -5410.747787
 Sum of electronic and thermal Energies=             -5410.715151
 Sum of electronic and thermal Enthalpies=           -5410.714207
 Sum of electronic and thermal Free Energies=        -5410.815308

                     E (Thermal)             CV                S
                      KCal/Mol        Cal/Mol-Kelvin    Cal/Mol-Kelvin
 Total                   47.709            104.617            212.785
 Electronic               0.000              0.000              0.000
 Translational            0.889              2.981             46.661
 Rotational               0.889              2.981             38.171
 Vibrational             45.932             98.655            127.952
 Vibration     1          0.593              1.986              7.084
 Vibration     2          0.594              1.982              5.369
 Vibration     3          0.595              1.979              5.002
 Vibration     4          0.596              1.976              4.626
 Vibration     5          0.597              1.972              4.333
 Vibration     6          0.597              1.971              4.295
 Vibration     7          0.598              1.969              4.187
 Vibration     8          0.600              1.962              3.880
 Vibration     9          0.601              1.959              3.745
 Vibration    10          0.601              1.958              3.708
 Vibration    11          0.602              1.956              3.638
 Vibration    12          0.604              1.950              3.475
 Vibration    13          0.607              1.940              3.244
 Vibration    14          0.607              1.938              3.208
 Vibration    15          0.609              1.932              3.099
 Vibration    16          0.612              1.924              2.958
 Vibration    17          0.614              1.915              2.825
 Vibration    18          0.617              1.906              2.710
 Vibration    19          0.619              1.900              2.647
 Vibration    20          0.619              1.899              2.633
 Vibration    21          0.621              1.893              2.568
 Vibration    22          0.624              1.885              2.483
 Vibration    23          0.628              1.872              2.372
 Vibration    24          0.628              1.871              2.360
 Vibration    25          0.632              1.859              2.270
 Vibration    26          0.635              1.848              2.186
 Vibration    27          0.639              1.837              2.114
 Vibration    28          0.640              1.833              2.090
 Vibration    29          0.648              1.808              1.947
 Vibration    30          0.654              1.790              1.852
 Vibration    31          0.664              1.759              1.715
 Vibration    32          0.673              1.732              1.609
 Vibration    33          0.674              1.728              1.596
 Vibration    34          0.677              1.721              1.569
 Vibration    35          0.681              1.708              1.525
 Vibration    36          0.692              1.675              1.421
 Vibration    37          0.705              1.639              1.319
 Vibration    38          0.707              1.631              1.298
 Vibration    39          0.710              1.622              1.276
 Vibration    40          0.727              1.575              1.167
 Vibration    41          0.741              1.538              1.087
 Vibration    42          0.751              1.509              1.033
 Vibration    43          0.755              1.498              1.011
 Vibration    44          0.764              1.475              0.971
 Vibration    45          0.772              1.453              0.934
 Vibration    46          0.777              1.442              0.916
 Vibration    47          0.786              1.419              0.880
 Vibration    48          0.792              1.402              0.854
 Vibration    49          0.795              1.395              0.844
 Vibration    50          0.799              1.387              0.832
 Vibration    51          0.807              1.366              0.802
 Vibration    52          0.814              1.348              0.778
 Vibration    53          0.817              1.341              0.770
 Vibration    54          0.851              1.260              0.669
 Vibration    55          0.898              1.155              0.559
 Vibration    56          0.904              1.142              0.546
 Vibration    57          0.911              1.128              0.533
 Vibration    58          0.914              1.121              0.527

                           ! Non-Optimized Parameters !
 Normal termination of Gaussian 16 at Fri Dec  9 13:15:20 2022.
