 Gaussian 16, Revision C.01,
 Gaussian 16:  ES64L-G16RevC.01  3-Jul-2019

 ---------------------------------------
 # opt freq b3lyp/gen nosymm pseudo=read
 ---------------------------------------

 -------------------
 Title Card Required
 -------------------
 Symbolic Z-matrix:
 Charge =  0 Multiplicity = 1

 SCF Done:  E(RB3LYP) =  -5297.41341118     A.U. after   37 cycles
 SCF Done:  E(RB3LYP) =  -5297.42339559     A.U. after   21 cycles
 SCF Done:  E(RB3LYP) =  -5297.43314271     A.U. after   22 cycles
 SCF Done:  E(RB3LYP) =  -5297.43660557     A.U. after   21 cycles
 SCF Done:  E(RB3LYP) =  -5297.43801662     A.U. after   20 cycles
 SCF Done:  E(RB3LYP) =  -5297.43865662     A.U. after   20 cycles
 SCF Done:  E(RB3LYP) =  -5297.43880791     A.U. after   18 cycles
 SCF Done:  E(RB3LYP) =  -5297.43890897     A.U. after   18 cycles
 SCF Done:  E(RB3LYP) =  -5297.43892844     A.U. after   16 cycles
 SCF Done:  E(RB3LYP) =  -5297.43893658     A.U. after   16 cycles
 SCF Done:  E(RB3LYP) =  -5297.43893994     A.U. after   15 cycles
 SCF Done:  E(RB3LYP) =  -5297.43894189     A.U. after   15 cycles
 SCF Done:  E(RB3LYP) =  -5297.43894266     A.U. after   15 cycles
 SCF Done:  E(RB3LYP) =  -5297.43894293     A.U. after   14 cycles
 SCF Done:  E(RB3LYP) =  -5297.43894304     A.U. after   13 cycles
 Optimization completed.
    -- Stationary point found.

 1\1\GINC-NODE10-IB\FOpt\RB3LYP\Gen\C1Mo6O1S12\CHESAGAR\09-Dec-2022\0\\
 # opt freq b3lyp/gen nosymm pseudo=read\\Title Card Required\\0,1\Mo,0
 .2896037356,0.9796863147,11.7386826669\S,0.5987460463,2.9844489814,12.
 7394740146\S,-1.8768192529,0.2957832275,12.2800145433\S,-0.0704111161,
 1.1195323911,9.3580240943\S,2.3513743456,0.0255210129,11.7087203952\Mo
 ,-2.1927090678,1.590444258,10.355453241\S,-3.44515204,1.4704487503,8.2
 616160652\S,-2.3532983848,3.7027862783,11.3677599504\Mo,-0.0128751143,
 3.2270456077,10.4297291588\S,-0.4197795289,4.027605773,7.8869730598\S,

 Normal termination of Gaussian 16 at Fri Dec  9 13:13:43 2022.

 ------------------------------------------------------------------
 #N Geom=AllCheck Guess=TCheck SCRF=Check GenChk RB3LYP/ChkBas Freq
 ------------------------------------------------------------------

 Structure from the checkpoint file:  "/home/chesagar/scratch/Gau-16544.chk"
 -------------------
 Title Card Required
 -------------------
 Charge =  0 Multiplicity = 1

                          Input orientation:
 ---------------------------------------------------------------------
 Center     Atomic      Atomic             Coordinates (Angstroms)
 Number     Number       Type             X           Y           Z
 ---------------------------------------------------------------------
      1         42           0        0.289604    0.979686   11.738683
      2         16           0        0.598746    2.984449   12.739474
      3         16           0       -1.876819    0.295783   12.280015
      4         16           0       -0.070411    1.119532    9.358024
      5         16           0        2.351374    0.025521   11.708720
      6         42           0       -2.192709    1.590444   10.355453
      7         16           0       -3.445152    1.470449    8.261616
      8         16           0       -2.353298    3.702786   11.367760
      9         42           0       -0.012875    3.227046   10.429729
     10         16           0       -0.419780    4.027606    7.886973
     11         16           0        2.147514    3.935145    9.734214
     12         42           0        3.190820    1.994782   10.552879
     13         42           0       -2.524369    3.542997    7.406806
     14         16           0        4.685149    2.689796   11.881133
     15         16           0        4.170906    1.189019    8.858785
     16         16           0       -3.735674    5.270347    8.350446
     17         16           0       -2.916824    3.608955    5.325846
     18         42           0       -4.033496    3.354777    9.677870
     19          6           0       -5.334049    2.064036   10.576439
     20          8           0       -6.153316    1.409512   11.059693
 ---------------------------------------------------------------------

 SCF Done:  E(RB3LYP) =  -5297.43894304     A.U. after    3 cycles

 Alpha  occ. eigenvalues --  -88.92850 -88.90964 -88.90933 -88.90650 -88.90128
 Alpha  occ. eigenvalues --  -88.89760 -88.89307 -88.88851 -88.88521 -88.88270
 Alpha  occ. eigenvalues --  -88.87988 -88.87836 -19.26067 -10.33426  -8.00394
 Alpha  occ. eigenvalues --   -7.98572  -7.98502  -7.98408  -7.97917  -7.97648
 Alpha  occ. eigenvalues --   -7.97217  -7.96776  -7.96313  -7.96047  -7.95806
 Alpha  occ. eigenvalues --   -7.95746  -5.96434  -5.96359  -5.96265  -5.94577
 Alpha  occ. eigenvalues --   -5.94553  -5.94537  -5.94526  -5.94480  -5.94434
 Alpha  occ. eigenvalues --   -5.94345  -5.94313  -5.94281  -5.93944  -5.93855
 Alpha  occ. eigenvalues --   -5.93793  -5.93694  -5.93625  -5.93443  -5.93280
 Alpha  occ. eigenvalues --   -5.93199  -5.92969  -5.92788  -5.92783  -5.92553
 Alpha  occ. eigenvalues --   -5.92444  -5.92299  -5.92124  -5.92031  -5.91977
 Alpha  occ. eigenvalues --   -5.91882  -5.91863  -5.91791  -5.91730  -5.91720
 Alpha  occ. eigenvalues --   -5.91663  -5.91531  -2.58041  -2.57398  -2.56783
 Alpha  occ. eigenvalues --   -2.56379  -2.55330  -2.52957  -1.61021  -1.60535
 Alpha  occ. eigenvalues --   -1.60484  -1.60088  -1.59878  -1.59566  -1.59385
 Alpha  occ. eigenvalues --   -1.59266  -1.58941  -1.58758  -1.58508  -1.58054
 Alpha  occ. eigenvalues --   -1.57613  -1.57481  -1.56833  -1.55497  -1.55001
 Alpha  occ. eigenvalues --   -1.54710  -1.16091  -0.76386  -0.74455  -0.73948
 Alpha  occ. eigenvalues --   -0.73370  -0.72799  -0.72302  -0.71531  -0.71133
 Alpha  occ. eigenvalues --   -0.70702  -0.70019  -0.69889  -0.69040  -0.59349
 Alpha  occ. eigenvalues --   -0.48527  -0.48341  -0.48122  -0.43627  -0.43066
 Alpha  occ. eigenvalues --   -0.42492  -0.41486  -0.41284  -0.40625  -0.40210
 Alpha  occ. eigenvalues --   -0.39939  -0.39388  -0.38716  -0.38228  -0.38044
 Alpha  occ. eigenvalues --   -0.37930  -0.37509  -0.37324  -0.36826  -0.36754
 Alpha  occ. eigenvalues --   -0.36633  -0.36245  -0.36090  -0.35340  -0.35053
 Alpha  occ. eigenvalues --   -0.34713  -0.34247  -0.33832  -0.33775  -0.33037
 Alpha  occ. eigenvalues --   -0.32375  -0.31381  -0.30977  -0.30512  -0.30081
 Alpha  occ. eigenvalues --   -0.29527  -0.29432  -0.29036  -0.28185  -0.27771
 Alpha  occ. eigenvalues --   -0.27409  -0.26464  -0.25607  -0.25051  -0.23284
 Alpha virt. eigenvalues --   -0.17479  -0.16769  -0.16373  -0.15740  -0.15161
 Alpha virt. eigenvalues --   -0.14812  -0.14249  -0.13910  -0.13335  -0.13264
 Alpha virt. eigenvalues --   -0.12663  -0.12185  -0.11780  -0.11389  -0.10809

 Mulliken charges:
               1
     1  Mo  -0.070108
     2  S    0.144587
     3  S   -0.061638
     4  S    0.306758
     5  S   -0.068173
     6  Mo  -0.023291
     7  S    0.037832
     8  S    0.136881
     9  Mo  -0.391959
    10  S   -0.109635
    11  S    0.020757
    12  Mo   0.245377
    13  Mo   0.355536
    14  S   -0.103984
    15  S   -0.108598
    16  S   -0.032695
    17  S   -0.196791
    18  Mo  -0.056152
    19  C    0.191872
    20  O   -0.216576
 Sum of Mulliken charges =  -0.00000

 Dipole moment (field-independent basis, Debye):
    X=             -1.7262    Y=             -1.2570    Z=              2.4670  Tot=              3.2628
 Quadrupole moment (field-independent basis, Debye-Ang):
   XX=           -304.6268   YY=           -310.9415   ZZ=           -263.1667
   XY=             -5.8401   XZ=            -20.5940   YZ=             -1.4848

  Exact polarizability:     747.429     -54.949     373.874      88.709     -69.308     499.608
 Approx polarizability:    2200.080     -73.807    1319.125     132.784    -132.223    1560.146

                      1                      2                      3
                      A                      A                      A
 Frequencies --     16.5413                38.4893                47.4938
 Red. masses --     34.4299                29.6142                35.4382
 Frc consts  --      0.0056                 0.0258                 0.0471
 IR Inten    --      0.0166                 0.0642                 0.2182

                      4                      5                      6
                      A                      A                      A
 Frequencies --     59.1349                66.0372                71.4378
 Red. masses --     20.9521                27.8486                32.3465
 Frc consts  --      0.0432                 0.0716                 0.0973
 IR Inten    --      0.7911                 0.0942                 1.4067

                      7                      8                      9
                      A                      A                      A
 Frequencies --     73.3753                82.3264                85.5168
 Red. masses --     35.5146                47.0960                29.0755
 Frc consts  --      0.1127                 0.1881                 0.1253
 IR Inten    --      1.7583                 2.4244                 0.6248

                     10                     11                     12
                      A                      A                      A
 Frequencies --     97.8811               113.9259               116.1431
 Red. masses --     38.7961                41.7116                38.0985
 Frc consts  --      0.2190                 0.3190                 0.3028
 IR Inten    --      0.5046                 0.0585                 0.7563

                     13                     14                     15
                      A                      A                      A
 Frequencies --    117.0791               132.6559               139.9292
 Red. masses --     41.2336                42.9826                44.8019
 Frc consts  --      0.3330                 0.4457                 0.5168
 IR Inten    --      0.2035                 0.2403                 0.4674

                     16                     17                     18
                      A                      A                      A
 Frequencies --    147.3445               148.9008               153.4467
 Red. masses --     39.7641                37.8290                42.8720
 Frc consts  --      0.5086                 0.4942                 0.5948
 IR Inten    --      0.5598                 0.7016                 0.7479

                     19                     20                     21
                      A                      A                      A
 Frequencies --    160.4965               163.3199               171.5445
 Red. masses --     35.9407                49.5858                37.1542
 Frc consts  --      0.5455                 0.7793                 0.6442
 IR Inten    --      1.2867                 1.0927                 0.2684

                     22                     23                     24
                      A                      A                      A
 Frequencies --    182.6948               186.0621               194.8826
 Red. masses --     39.8029                38.2749                40.3648
 Frc consts  --      0.7827                 0.7807                 0.9032
 IR Inten    --      0.7292                 1.9696                 0.4842

                     25                     26                     27
                      A                      A                      A
 Frequencies --    198.1409               207.8021               224.4051
 Red. masses --     36.0670                42.0494                36.8911
 Frc consts  --      0.8343                 1.0698                 1.0946
 IR Inten    --      4.2386                 0.4648                 6.3507

                     28                     29                     30
                      A                      A                      A
 Frequencies --    233.0166               251.7591               270.8017
 Red. masses --     49.8075                40.7793                38.9964
 Frc consts  --      1.5934                 1.5229                 1.6849
 IR Inten    --      0.7517                 2.2839                 1.1404

                     31                     32                     33
                      A                      A                      A
 Frequencies --    274.8056               277.9588               299.6850
 Red. masses --     36.6846                39.2148                39.6070
 Frc consts  --      1.6322                 1.7851                 2.0958
 IR Inten    --      7.6042                 0.1086                 3.8374

                     34                     35                     36
                      A                      A                      A
 Frequencies --    309.2558               318.2738               323.7897
 Red. masses --     36.4352                35.4359                39.2320
 Frc consts  --      2.0531                 2.1149                 2.4234
 IR Inten    --      1.9920                33.7484                 3.2588

                     37                     38                     39
                      A                      A                      A
 Frequencies --    332.1619               348.5630               368.2969
 Red. masses --     39.8280                41.4915                37.5832
 Frc consts  --      2.5890                 2.9701                 3.0036
 IR Inten    --      0.6376                10.2151                 6.1189

                     40                     41                     42
                      A                      A                      A
 Frequencies --    383.2845               399.2986               407.0348
 Red. masses --     30.9175                19.2770                30.5213
 Frc consts  --      2.6761                 1.8109                 2.9793
 IR Inten    --      3.7531                30.7137                17.0986

                     43                     44                     45
                      A                      A                      A
 Frequencies --    411.3729               417.1837               432.7551
 Red. masses --     35.5613                23.1991                41.0998
 Frc consts  --      3.5457                 2.3789                 4.5350
 IR Inten    --     50.6156                16.9223                17.4961

                     46                     47                     48
                      A                      A                      A
 Frequencies --    436.3701               448.3471               455.7799
 Red. masses --     35.5022                37.8303                30.7207
 Frc consts  --      3.9830                 4.4804                 3.7600
 IR Inten    --      8.0643                29.8383                 8.9059

                     49                     50                     51
                      A                      A                      A
 Frequencies --    462.6818               469.9122               548.2241
 Red. masses --     18.4885                16.5610                37.0701
 Frc consts  --      2.3319                 2.1546                 6.5643
 IR Inten    --     17.3257                 2.1584               103.2383

                     52                     53                     54
                      A                      A                      A
 Frequencies --    554.6643               558.5787              2052.5796
 Red. masses --     40.5174                39.4712                13.3971
 Frc consts  --      7.3443                 7.2560                33.2552
 IR Inten    --     46.6301               119.5064              1756.8284

 - Thermochemistry -
 -------------------
 Temperature   298.150 Kelvin.  Pressure   1.00000 Atm.
 Atom     1 has atomic number 42 and mass  97.90550

 Molecular mass:   999.09278 amu.
 Principal axes and moments of inertia in atomic units:
                           1         2         3
     Eigenvalues --  ******************************
           X            0.91896  -0.39421   0.01037
           Y           -0.20354  -0.45163   0.86868
           Z            0.33776   0.80039   0.49527
 This molecule is an asymmetric top.
 Rotational symmetry number  1.
 Warning -- assumption of classical behavior for rotation
           may cause significant error
 Rotational temperatures (Kelvin)      0.00687     0.00273     0.00230
 Rotational constants (GHZ):           0.14323     0.05684     0.04787
 Zero-point vibrational energy      92372.3 (Joules/Mol)
                                   22.07751 (Kcal/Mol)
 Warning -- explicit consideration of  53 degrees of freedom as
           vibrations may cause significant error
 Vibrational temperatures:     23.80    55.38    68.33    85.08    95.01
          (Kelvin)            102.78   105.57   118.45   123.04   140.83
                              163.91   167.10   168.45   190.86   201.33
                              212.00   214.24   220.78   230.92   234.98
                              246.81   262.86   267.70   280.39   285.08
                              298.98   322.87   335.26   362.23   389.62
                              395.38   399.92   431.18   444.95   457.93
                              465.86   477.91   501.50   529.90   551.46
                              574.50   585.63   591.87   600.23   622.64
                              627.84   645.07   655.77   665.70   676.10
                              788.77   798.04   803.67  2953.20

 Zero-point correction=                           0.035183 (Hartree/Particle)
 Thermal correction to Energy=                    0.065425
 Thermal correction to Enthalpy=                  0.066370
 Thermal correction to Gibbs Free Energy=        -0.029477
 Sum of electronic and zero-point Energies=          -5297.403760
 Sum of electronic and thermal Energies=             -5297.373518
 Sum of electronic and thermal Enthalpies=           -5297.372573
 Sum of electronic and thermal Free Energies=        -5297.468420

                     E (Thermal)             CV                S
                      KCal/Mol        Cal/Mol-Kelvin    Cal/Mol-Kelvin
 Total                   41.055             96.611            201.727
 Electronic               0.000              0.000              0.000
 Translational            0.889              2.981             46.579
 Rotational               0.889              2.981             37.953
 Vibrational             39.278             90.649            117.195
 Vibration     1          0.593              1.986              7.011
 Vibration     2          0.594              1.982              5.335
 Vibration     3          0.595              1.979              4.919
 Vibration     4          0.597              1.974              4.486
 Vibration     5          0.597              1.970              4.268
 Vibration     6          0.598              1.968              4.113
 Vibration     7          0.599              1.967              4.061
 Vibration     8          0.600              1.961              3.835
 Vibration     9          0.601              1.959              3.760
 Vibration    10          0.603              1.951              3.496
 Vibration    11          0.607              1.938              3.201
 Vibration    12          0.608              1.936              3.164
 Vibration    13          0.608              1.935              3.148
 Vibration    14          0.613              1.921              2.907
 Vibration    15          0.615              1.913              2.805
 Vibration    16          0.617              1.906              2.706
 Vibration    17          0.618              1.904              2.686
 Vibration    18          0.619              1.899              2.629
 Vibration    19          0.622              1.891              2.544
 Vibration    20          0.623              1.887              2.511
 Vibration    21          0.626              1.878              2.418
 Vibration    22          0.630              1.863              2.301
 Vibration    23          0.632              1.859              2.267
 Vibration    24          0.636              1.847              2.181
 Vibration    25          0.637              1.842              2.150
 Vibration    26          0.641              1.829              2.063
 Vibration    27          0.649              1.804              1.923
 Vibration    28          0.654              1.790              1.856
 Vibration    29          0.664              1.760              1.718
 Vibration    30          0.674              1.727              1.591
 Vibration    31          0.677              1.720              1.566
 Vibration    32          0.679              1.714              1.546
 Vibration    33          0.692              1.674              1.419
 Vibration    34          0.699              1.656              1.366
 Vibration    35          0.705              1.639              1.319
 Vibration    36          0.708              1.628              1.291
 Vibration    37          0.714              1.611              1.250
 Vibration    38          0.726              1.578              1.173
 Vibration    39          0.741              1.537              1.087
 Vibration    40          0.752              1.506              1.026
 Vibration    41          0.765              1.472              0.965
 Vibration    42          0.772              1.455              0.937
 Vibration    43          0.775              1.446              0.922
 Vibration    44          0.780              1.433              0.902
 Vibration    45          0.794              1.399              0.850
 Vibration    46          0.797              1.391              0.838
 Vibration    47          0.807              1.365              0.801
 Vibration    48          0.814              1.348              0.778
 Vibration    49          0.820              1.333              0.758
 Vibration    50          0.827              1.317              0.738
 Vibration    51          0.903              1.144              0.548
 Vibration    52          0.910              1.129              0.535
 Vibration    53          0.914              1.121              0.527

                           ! Non-Optimized Parameters !

 1\1\GINC-NODE10-IB\Freq\RB3LYP\Gen\C1Mo6O1S12\CHESAGAR\09-Dec-2022\0\\
 #N Geom=AllCheck Guess=TCheck SCRF=Check GenChk RB3LYP/ChkBas Freq\\Ti
 tle Card Required\\0,1\Mo,0.2896037356,0.9796863147,11.7386826669\S,0.
 5987460463,2.9844489814,12.7394740146\S,-1.8768192529,0.2957832275,12.
 2800145433\S,-0.0704111161,1.1195323911,9.3580240943\S,2.3513743456,0.
 0255210129,11.7087203952\Mo,-2.1927090678,1.590444258,10.355453241\S,-
 3.44515204,1.4704487503,8.2616160652\S,-2.3532983848,3.7027862783,11.3
 677599504\Mo,-0.0128751143,3.2270456077,10.4297291588\S,-0.4197795289,

 Normal termination of Gaussian 16 at Fri Dec  9 13:17:01 2022.
