 Gaussian 16, Revision C.01,
 Gaussian 16:  ES64L-G16RevC.01  3-Jul-2019

 ---------------------------------------
 # opt freq b3lyp/gen nosymm pseudo=read
 ---------------------------------------

 -------------------
 Title Card Required
 -------------------
 Symbolic Z-matrix:
 Charge =  0 Multiplicity = 1

 SCF Done:  E(RB3LYP) =  -5184.02992147     A.U. after   36 cycles
 SCF Done:  E(RB3LYP) =  -5184.04387449     A.U. after   24 cycles
 SCF Done:  E(RB3LYP) =  -5184.05841378     A.U. after   24 cycles
 SCF Done:  E(RB3LYP) =  -5184.06364364     A.U. after   22 cycles
 SCF Done:  E(RB3LYP) =  -5184.06659572     A.U. after   23 cycles
 SCF Done:  E(RB3LYP) =  -5184.06730494     A.U. after   21 cycles
 SCF Done:  E(RB3LYP) =  -5184.06790252     A.U. after   21 cycles
 SCF Done:  E(RB3LYP) =  -5184.06806525     A.U. after   20 cycles
 SCF Done:  E(RB3LYP) =  -5184.06810469     A.U. after   19 cycles
 SCF Done:  E(RB3LYP) =  -5184.06811742     A.U. after   18 cycles
 SCF Done:  E(RB3LYP) =  -5184.06813036     A.U. after   18 cycles
 SCF Done:  E(RB3LYP) =  -5184.06813580     A.U. after   17 cycles
 SCF Done:  E(RB3LYP) =  -5184.06813747     A.U. after   16 cycles
 Optimization completed.
    -- Stationary point found.
 Normal termination of Gaussian 16 at Fri Dec  9 13:13:15 2022.

 ------------------------------------------------------------------
 #N Geom=AllCheck Guess=TCheck SCRF=Check GenChk RB3LYP/ChkBas Freq
 ------------------------------------------------------------------

 Structure from the checkpoint file:  "/home/chesagar/scratch/Gau-151108.chk"
 -------------------
 Title Card Required
 -------------------
 Charge =  0 Multiplicity = 1

                          Input orientation:
 ---------------------------------------------------------------------
 Center     Atomic      Atomic             Coordinates (Angstroms)
 Number     Number       Type             X           Y           Z
 ---------------------------------------------------------------------
      1         42           0        0.220940    1.024965   11.738115
      2         16           0        0.471231    3.017658   12.797370
      3         16           0       -1.980122    0.313513   12.140139
      4         16           0       -0.004703    1.199680    9.338612
      5         16           0        2.263313    0.030971   11.778212
      6         42           0       -2.160615    1.643353   10.247144
      7         16           0       -3.568728    1.509146    8.290021
      8         16           0       -2.428277    3.743400   11.208908
      9         42           0        0.066118    3.289723   10.456459
     10         16           0       -0.378486    4.040041    7.884944
     11         16           0        2.192613    4.005923    9.830323
     12         42           0        3.130511    1.960853   10.579381
     13         42           0       -2.475400    3.562699    7.375368
     14         16           0        4.708126    2.574154   11.849792
     15         16           0        3.994464    1.126716    8.835749
     16         16           0       -3.651732    5.379304    8.278482
     17         16           0       -2.880533    3.592945    5.291165
     18         42           0       -4.044841    3.491190    9.489129
 ---------------------------------------------------------------------

 SCF Done:  E(RB3LYP) =  -5184.06813747     A.U. after    1 cycles

 Alpha  occ. eigenvalues --  -88.92203 -88.90934 -88.90625 -88.89674 -88.89578
 Alpha  occ. eigenvalues --  -88.89027 -88.89016 -88.88787 -88.88289 -88.88263
 Alpha  occ. eigenvalues --  -88.87779 -88.87309  -7.99716  -7.98502  -7.98295
 Alpha  occ. eigenvalues --   -7.97451  -7.97379  -7.96897  -7.96896  -7.96701
 Alpha  occ. eigenvalues --   -7.96185  -7.96091  -7.95556  -7.95223  -5.95766
 Alpha  occ. eigenvalues --   -5.95676  -5.95590  -5.94540  -5.94487  -5.94372
 Alpha  occ. eigenvalues --   -5.94334  -5.94232  -5.94192  -5.93485  -5.93396
 Alpha  occ. eigenvalues --   -5.93378  -5.93330  -5.93308  -5.93267  -5.92948
 Alpha  occ. eigenvalues --   -5.92946  -5.92873  -5.92856  -5.92774  -5.92703
 Alpha  occ. eigenvalues --   -5.92692  -5.92677  -5.92450  -5.92205  -5.92203
 Alpha  occ. eigenvalues --   -5.92186  -5.92069  -5.91960  -5.91835  -5.91607
 Alpha  occ. eigenvalues --   -5.91518  -5.91386  -5.91312  -5.91196  -5.90968
 Alpha  occ. eigenvalues --   -2.57380  -2.56506  -2.55908  -2.55726  -2.54266
 Alpha  occ. eigenvalues --   -2.53293  -1.60096  -1.59948  -1.59751  -1.59285
 Alpha  occ. eigenvalues --   -1.59142  -1.58965  -1.58651  -1.58578  -1.58305
 Alpha  occ. eigenvalues --   -1.57867  -1.57775  -1.57536  -1.56493  -1.56349
 Alpha  occ. eigenvalues --   -1.56253  -1.55629  -1.55093  -1.54783  -0.75737
 Alpha  occ. eigenvalues --   -0.74103  -0.73563  -0.72869  -0.72142  -0.71863
 Alpha  occ. eigenvalues --   -0.71709  -0.71038  -0.70222  -0.69745  -0.69339
 Alpha  occ. eigenvalues --   -0.68584  -0.43082  -0.42646  -0.41798  -0.40892
 Alpha  occ. eigenvalues --   -0.40764  -0.40080  -0.39825  -0.39439  -0.39071
 Alpha  occ. eigenvalues --   -0.38257  -0.38157  -0.38011  -0.37822  -0.37670
 Alpha  occ. eigenvalues --   -0.37008  -0.36763  -0.36286  -0.36132  -0.35702
 Alpha  occ. eigenvalues --   -0.35435  -0.34961  -0.34659  -0.34425  -0.33843
 Alpha  occ. eigenvalues --   -0.33678  -0.33366  -0.32685  -0.32199  -0.31251
 Alpha  occ. eigenvalues --   -0.30429  -0.30108  -0.29923  -0.29302  -0.29083
 Alpha  occ. eigenvalues --   -0.28552  -0.28022  -0.27589  -0.26737  -0.25786
 Alpha  occ. eigenvalues --   -0.25568  -0.24219  -0.22098
 Alpha virt. eigenvalues --   -0.17118  -0.16211  -0.15596  -0.15371  -0.14951
 Alpha virt. eigenvalues --   -0.14250  -0.13656  -0.13461  -0.13281  -0.12726
 Alpha virt. eigenvalues --   -0.12339  -0.11767  -0.11571  -0.11211  -0.10521

 Mulliken charges:
               1
     1  Mo  -0.077395
     2  S    0.117282
     3  S   -0.093784
     4  S    0.287935
     5  S   -0.064689
     6  Mo   0.031950
     7  S   -0.024038
     8  S    0.074554
     9  Mo  -0.366615
    10  S   -0.106445
    11  S    0.014634
    12  Mo   0.237327
    13  Mo   0.343620
    14  S   -0.111813
    15  S   -0.114446
    16  S   -0.030638
    17  S   -0.204115
    18  Mo   0.086677
 Sum of Mulliken charges =  -0.00000

 Dipole moment (field-independent basis, Debye):
    X=             -4.3883    Y=             -0.6797    Z=              2.5860  Tot=              5.1387
 Quadrupole moment (field-independent basis, Debye-Ang):
   XX=           -279.1571   YY=           -297.8420   ZZ=           -253.6677
   XY=            -12.5610   XZ=            -49.6085   YZ=              3.8847

  Exact polarizability:     723.651     -89.004     381.538     133.821     -74.416     502.711
 Approx polarizability:    2434.203    -270.566    1394.384     329.769    -182.541    1587.013

                      1                      2                      3
                      A                      A                      A
 Frequencies --     24.3551                41.1338                44.0007
 Red. masses --     37.2201                39.5445                38.3244
 Frc consts  --      0.0130                 0.0394                 0.0437
 IR Inten    --      0.0134                 0.6247                 0.3697

                      4                      5                      6
                      A                      A                      A
 Frequencies --     64.5036                70.1317                75.3801
 Red. masses --     41.3175                43.8631                43.8113
 Frc consts  --      0.1013                 0.1271                 0.1467
 IR Inten    --      2.6261                 0.1108                 0.5446

                      7                      8                      9
                      A                      A                      A
 Frequencies --     87.0165                97.6080               105.5600
 Red. masses --     48.7818                41.1325                45.1237
 Frc consts  --      0.2176                 0.2309                 0.2962
 IR Inten    --      4.8637                 0.8827                 1.1427

                     10                     11                     12
                      A                      A                      A
 Frequencies --    109.9755               113.7037               125.1255
 Red. masses --     41.7001                41.7235                40.0878
 Frc consts  --      0.2972                 0.3178                 0.3698
 IR Inten    --      0.0152                 1.6215                 2.0647

                     13                     14                     15
                      A                      A                      A
 Frequencies --    135.0104               140.7609               144.1626
 Red. masses --     48.7286                48.4551                42.3853
 Frc consts  --      0.5233                 0.5657                 0.5190
 IR Inten    --      9.0674                 0.5133                 4.6504

                     16                     17                     18
                      A                      A                      A
 Frequencies --    149.1671               152.2143               159.1970
 Red. masses --     36.5879                43.6569                41.6106
 Frc consts  --      0.4797                 0.5960                 0.6213
 IR Inten    --      0.4256                 0.6515                 0.6764

                     19                     20                     21
                      A                      A                      A
 Frequencies --    167.2192               175.6542               179.1627
 Red. masses --     37.7001                37.6178                38.8743
 Frc consts  --      0.6211                 0.6839                 0.7352
 IR Inten    --      0.2369                 3.8709                 4.4427

                     22                     23                     24
                      A                      A                      A
 Frequencies --    192.3467               196.2978               208.1399
 Red. masses --     38.8011                38.9000                43.3912
 Frc consts  --      0.8458                 0.8831                 1.1075
 IR Inten    --      0.4671                 1.6159                 0.9261

                     25                     26                     27
                      A                      A                      A
 Frequencies --    221.7279               230.2033               249.9750
 Red. masses --     43.1535                49.3371                40.5245
 Frc consts  --      1.2500                 1.5404                 1.4920
 IR Inten    --     19.3958                 0.1719                 0.6486

                     28                     29                     30
                      A                      A                      A
 Frequencies --    260.7886               270.7776               282.8287
 Red. masses --     41.6882                37.8593                38.1008
 Frc consts  --      1.6705                 1.6355                 1.7957
 IR Inten    --      0.1458                 2.3334                 1.5017

                     31                     32                     33
                      A                      A                      A
 Frequencies --    298.5646               311.3363               318.3323
 Red. masses --     38.3572                35.9088                40.7933
 Frc consts  --      2.0145                 2.0507                 2.4356
 IR Inten    --      5.7342                13.4537                 0.9342

                     34                     35                     36
                      A                      A                      A
 Frequencies --    323.8694               330.2563               349.0826
 Red. masses --     39.9775                42.2723                42.2441
 Frc consts  --      2.4706                 2.7165                 3.0330
 IR Inten    --      3.2442                 2.1627                 6.6399

                     37                     38                     39
                      A                      A                      A
 Frequencies --    380.3872               394.3565               410.2344
 Red. masses --     37.0201                37.1167                35.5804
 Frc consts  --      3.1560                 3.4009                 3.5280
 IR Inten    --      8.5983                 8.8360                30.7632

                     40                     41                     42
                      A                      A                      A
 Frequencies --    413.3760               429.9555               435.5455
 Red. masses --     39.4445                41.1070                39.0359
 Frc consts  --      3.9712                 4.4773                 4.3630
 IR Inten    --      4.9708                29.3402                13.2358

                     43                     44                     45
                      A                      A                      A
 Frequencies --    441.7877               444.9929               453.7647
 Red. masses --     38.2392                38.5172                39.4154
 Frc consts  --      4.3973                 4.4938                 4.7816
 IR Inten    --     22.0423                21.0249                13.7067

                     46                     47                     48
                      A                      A                      A
 Frequencies --    547.7205               552.5528               555.4306
 Red. masses --     37.2238                39.4765                40.5815
 Frc consts  --      6.5794                 7.1013                 7.3763
 IR Inten    --    124.1176                99.9600                58.6140

 - Thermochemistry -
 -------------------
 Temperature   298.150 Kelvin.  Pressure   1.00000 Atm.
 Atom     1 has atomic number 42 and mass  97.90550

 Molecular mass:   971.09786 amu.
 Principal axes and moments of inertia in atomic units:
                           1         2         3
     Eigenvalues --  ******************************
           X            0.87746  -0.47910   0.02295
           Y           -0.25123  -0.41830   0.87288
           Z            0.40860   0.77168   0.48740
 This molecule is an asymmetric top.
 Rotational symmetry number  1.
 Warning -- assumption of classical behavior for rotation
           may cause significant error
 Rotational temperatures (Kelvin)      0.00764     0.00288     0.00250
 Rotational constants (GHZ):           0.15918     0.06000     0.05210
 Zero-point vibrational energy      70972.5 (Joules/Mol)
                                   16.96283 (Kcal/Mol)
 Warning -- explicit consideration of  48 degrees of freedom as
           vibrations may cause significant error
 Vibrational temperatures:     35.04    59.18    63.31    92.81   100.90
          (Kelvin)            108.46   125.20   140.44   151.88   158.23
                              163.59   180.03   194.25   202.52   207.42
                              214.62   219.00   229.05   240.59   252.73
                              257.78   276.74   282.43   299.47   319.02
                              331.21   359.66   375.22   389.59   406.93
                              429.57   447.94   458.01   465.98   475.17
                              502.25   547.29   567.39   590.24   594.76
                              618.61   626.65   635.63   640.25   652.87
                              788.05   795.00   799.14

 Zero-point correction=                           0.027032 (Hartree/Particle)
 Thermal correction to Energy=                    0.054988
 Thermal correction to Enthalpy=                  0.055932
 Thermal correction to Gibbs Free Energy=        -0.034776
 Sum of electronic and zero-point Energies=          -5184.041105
 Sum of electronic and thermal Energies=             -5184.013150
 Sum of electronic and thermal Enthalpies=           -5184.012206
 Sum of electronic and thermal Free Energies=        -5184.102913

                     E (Thermal)             CV                S
                      KCal/Mol        Cal/Mol-Kelvin    Cal/Mol-Kelvin
 Total                   34.505             88.577            190.910
 Electronic               0.000              0.000              0.000
 Translational            0.889              2.981             46.494
 Rotational               0.889              2.981             37.711
 Vibrational             32.728             82.615            106.705
 Vibration     1          0.593              1.985              6.243
 Vibration     2          0.594              1.981              5.204
 Vibration     3          0.595              1.980              5.070
 Vibration     4          0.597              1.971              4.314
 Vibration     5          0.598              1.968              4.150
 Vibration     6          0.599              1.965              4.008
 Vibration     7          0.601              1.958              3.726
 Vibration     8          0.603              1.951              3.502
 Vibration     9          0.605              1.945              3.349
 Vibration    10          0.606              1.941              3.269
 Vibration    11          0.607              1.938              3.205
 Vibration    12          0.610              1.928              3.020
 Vibration    13          0.613              1.918              2.873
 Vibration    14          0.615              1.913              2.794
 Vibration    15          0.616              1.909              2.748
 Vibration    16          0.618              1.904              2.683
 Vibration    17          0.619              1.900              2.644
 Vibration    18          0.621              1.892              2.559
 Vibration    19          0.624              1.883              2.467
 Vibration    20          0.628              1.872              2.374
 Vibration    21          0.629              1.868              2.337
 Vibration    22          0.634              1.850              2.205
 Vibration    23          0.636              1.845              2.168
 Vibration    24          0.641              1.828              2.060
 Vibration    25          0.648              1.808              1.945
 Vibration    26          0.652              1.795              1.877
 Vibration    27          0.663              1.763              1.731
 Vibration    28          0.669              1.744              1.656
 Vibration    29          0.674              1.727              1.591
 Vibration    30          0.682              1.705              1.517
 Vibration    31          0.692              1.676              1.425
 Vibration    32          0.700              1.652              1.355
 Vibration    33          0.705              1.639              1.319
 Vibration    34          0.708              1.628              1.290
 Vibration    35          0.713              1.615              1.259
 Vibration    36          0.726              1.577              1.170
 Vibration    37          0.750              1.512              1.038
 Vibration    38          0.761              1.482              0.984
 Vibration    39          0.774              1.448              0.926
 Vibration    40          0.777              1.441              0.915
 Vibration    41          0.791              1.405              0.859
 Vibration    42          0.796              1.393              0.841
 Vibration    43          0.802              1.379              0.821
 Vibration    44          0.804              1.372              0.811
 Vibration    45          0.812              1.353              0.784
 Vibration    46          0.903              1.145              0.549
 Vibration    47          0.908              1.134              0.539
 Vibration    48          0.911              1.128              0.533

                           ! Non-Optimized Parameters !
 Normal termination of Gaussian 16 at Fri Dec  9 13:15:52 2022.
