 Gaussian 16, Revision C.01,
 Gaussian 16:  ES64L-G16RevC.01  3-Jul-2019

 ---------------------------------------
 # opt freq b3lyp/gen nosymm pseudo=read
 ---------------------------------------

 -------------------
 Title Card Required
 -------------------
 Symbolic Z-matrix:
 Charge =  0 Multiplicity = 1

 SCF Done:  E(RB3LYP) =  -5583.48799944     A.U. after   31 cycles
 SCF Done:  E(RB3LYP) =  -5583.48980587     A.U. after   21 cycles
 SCF Done:  E(RB3LYP) =  -5583.49061283     A.U. after   21 cycles
 SCF Done:  E(RB3LYP) =  -5583.49057089     A.U. after   21 cycles
 SCF Done:  E(RB3LYP) =  -5583.49080701     A.U. after   19 cycles
 SCF Done:  E(RB3LYP) =  -5583.49098606     A.U. after   20 cycles
 SCF Done:  E(RB3LYP) =  -5583.49101734     A.U. after   18 cycles
 SCF Done:  E(RB3LYP) =  -5583.49104372     A.U. after   18 cycles
 SCF Done:  E(RB3LYP) =  -5583.49107047     A.U. after   18 cycles
 SCF Done:  E(RB3LYP) =  -5583.49108080     A.U. after   18 cycles
 SCF Done:  E(RB3LYP) =  -5583.49115563     A.U. after   20 cycles
 SCF Done:  E(RB3LYP) =  -5583.49117163     A.U. after   19 cycles
 SCF Done:  E(RB3LYP) =  -5583.49119668     A.U. after   20 cycles
 SCF Done:  E(RB3LYP) =  -5583.49120952     A.U. after   20 cycles
 SCF Done:  E(RB3LYP) =  -5583.49121436     A.U. after   18 cycles
 SCF Done:  E(RB3LYP) =  -5583.49121588     A.U. after   15 cycles
 SCF Done:  E(RB3LYP) =  -5583.49121691     A.U. after   17 cycles
 SCF Done:  E(RB3LYP) =  -5583.49121711     A.U. after   14 cycles
 SCF Done:  E(RB3LYP) =  -5583.49121724     A.U. after   14 cycles
 Optimization completed.
    -- Stationary point found.
 Normal termination of Gaussian 16 at Fri Dec  9 13:33:47 2022.

 ------------------------------------------------------------------
 #N Geom=AllCheck Guess=TCheck SCRF=Check GenChk RB3LYP/ChkBas Freq
 ------------------------------------------------------------------

 Structure from the checkpoint file:  "/home/chesagar/scratch/Gau-25618.chk"
 -------------------
 Title Card Required
 -------------------
 Charge =  0 Multiplicity = 1

                          Input orientation:
 ---------------------------------------------------------------------
 Center     Atomic      Atomic             Coordinates (Angstroms)
 Number     Number       Type             X           Y           Z
 ---------------------------------------------------------------------
      1         42           0        0.072169    1.106954   11.749470
      2         16           0        0.436122    3.137996   12.708275
      3         16           0       -2.162636    0.540555   12.202419
      4         16           0       -0.146200    1.172909    9.350889
      5         16           0        2.048782    0.001268   11.846115
      6         42           0       -2.280155    1.772788   10.232060
      7         16           0       -3.510195    1.677498    8.135391
      8         16           0       -2.427503    3.914314   11.124895
      9         42           0        0.055480    3.301470   10.357994
     10         16           0       -0.251621    3.929471    7.681549
     11         16           0        2.213269    3.939738    9.747272
     12         42           0        3.010674    1.870312   10.591730
     13         42           0       -2.375591    3.628891    7.200263
     14         16           0        4.594807    2.443766   11.875703
     15         16           0        3.859651    0.927814    8.895113
     16         16           0       -3.438592    5.495699    8.111087
     17         16           0       -2.798771    3.658432    5.119970
     18         42           0       -4.001854    3.676387    9.379381
     19         16           0       -6.158554    2.487823   10.164367
     20          1           0       -6.684913    3.341693   11.071780
     21          1           0       -7.059659    2.826042    9.210999
 ---------------------------------------------------------------------

 SCF Done:  E(RB3LYP) =  -5583.49121724     A.U. after    1 cycles

 Alpha  occ. eigenvalues --  -88.97014 -88.91122 -88.90319 -88.89696 -88.88616
 Alpha  occ. eigenvalues --  -88.88532 -88.88095 -88.87970 -88.87686 -88.87190
 Alpha  occ. eigenvalues --  -88.87128 -88.86945 -88.86569  -8.04610  -7.98648
 Alpha  occ. eigenvalues --   -7.97859  -7.97292  -7.96394  -7.96321  -7.95960
 Alpha  occ. eigenvalues --   -7.95829  -7.95600  -7.95114  -7.94916  -7.94732
 Alpha  occ. eigenvalues --   -7.94488  -6.00918  -6.00648  -6.00149  -5.94697
 Alpha  occ. eigenvalues --   -5.94598  -5.94530  -5.93896  -5.93831  -5.93746
 Alpha  occ. eigenvalues --   -5.93290  -5.93282  -5.93193  -5.92434  -5.92339
 Alpha  occ. eigenvalues --   -5.92318  -5.92277  -5.92246  -5.92212  -5.91967
 Alpha  occ. eigenvalues --   -5.91931  -5.91885  -5.91807  -5.91800  -5.91675
 Alpha  occ. eigenvalues --   -5.91627  -5.91572  -5.91351  -5.91133  -5.91115
 Alpha  occ. eigenvalues --   -5.91033  -5.90892  -5.90890  -5.90780  -5.90680
 Alpha  occ. eigenvalues --   -5.90663  -5.90576  -5.90556  -5.90464  -5.90249
 Alpha  occ. eigenvalues --   -2.56294  -2.55454  -2.54953  -2.54579  -2.53183
 Alpha  occ. eigenvalues --   -2.52752  -1.59065  -1.58890  -1.58653  -1.58203
 Alpha  occ. eigenvalues --   -1.58040  -1.58009  -1.57621  -1.57583  -1.57155
 Alpha  occ. eigenvalues --   -1.56760  -1.56667  -1.56536  -1.55538  -1.55438
 Alpha  occ. eigenvalues --   -1.55331  -1.54815  -1.54453  -1.54009  -0.83900
 Alpha  occ. eigenvalues --   -0.74733  -0.73181  -0.72642  -0.71864  -0.71148
 Alpha  occ. eigenvalues --   -0.70973  -0.70638  -0.69966  -0.69208  -0.68776
 Alpha  occ. eigenvalues --   -0.68294  -0.67833  -0.53210  -0.47122  -0.42068
 Alpha  occ. eigenvalues --   -0.41546  -0.40867  -0.40129  -0.39738  -0.39078
 Alpha  occ. eigenvalues --   -0.39028  -0.38716  -0.38183  -0.37992  -0.37288
 Alpha  occ. eigenvalues --   -0.37040  -0.36957  -0.36654  -0.36208  -0.35911
 Alpha  occ. eigenvalues --   -0.35708  -0.35347  -0.35078  -0.34792  -0.34319
 Alpha  occ. eigenvalues --   -0.34143  -0.33765  -0.33508  -0.33008  -0.32659
 Alpha  occ. eigenvalues --   -0.32310  -0.31845  -0.31218  -0.30014  -0.29445
 Alpha  occ. eigenvalues --   -0.29152  -0.28906  -0.28333  -0.28149  -0.27422
 Alpha  occ. eigenvalues --   -0.27227  -0.26512  -0.25967  -0.24895  -0.24443
 Alpha  occ. eigenvalues --   -0.23162  -0.21322
 Alpha virt. eigenvalues --   -0.15780  -0.15020  -0.14470  -0.14231  -0.13773
 Alpha virt. eigenvalues --   -0.13417  -0.12570  -0.12375  -0.11943  -0.11765
 Alpha virt. eigenvalues --   -0.11390  -0.11014  -0.10497  -0.10198  -0.09305

 Mulliken charges:
               1
     1  Mo  -0.079134
     2  S    0.112179
     3  S   -0.107166
     4  S    0.274585
     5  S   -0.068288
     6  Mo   0.033828
     7  S   -0.010204
     8  S    0.097261
     9  Mo  -0.350864
    10  S   -0.134257
    11  S    0.009353
    12  Mo   0.234208
    13  Mo   0.372882
    14  S   -0.123949
    15  S   -0.126282
    16  S   -0.053125
    17  S   -0.223125
    18  Mo  -0.162452
    19  S    0.035201
    20  H    0.132241
    21  H    0.137107
 Sum of Mulliken charges =  -0.00000

 Dipole moment (field-independent basis, Debye):
    X=            -10.0095    Y=              0.2015    Z=              2.8441  Tot=             10.4076
 Quadrupole moment (field-independent basis, Debye-Ang):
   XX=           -252.8037   YY=           -310.8922   ZZ=           -266.8466
   XY=            -31.4593   XZ=           -107.8921   YZ=             15.7472

  Exact polarizability:     778.909     -88.303     390.087     117.178     -76.532     521.540
 Approx polarizability:    2434.974    -261.356    1403.901     321.030    -193.400    1609.975

                      1                      2                      3
                      A                      A                      A
 Frequencies --     13.5249                24.7968                35.8364
 Red. masses --      4.3188                27.1946                27.1871
 Frc consts  --      0.0005                 0.0099                 0.0206
 IR Inten    --     18.4940                 0.6811                 0.5045

                      4                      5                      6
                      A                      A                      A
 Frequencies --     49.1056                66.0639                67.9997
 Red. masses --     33.2557                19.5977                32.3982
 Frc consts  --      0.0472                 0.0504                 0.0883
 IR Inten    --      1.2300                 0.6113                 0.4727

                      7                      8                      9
                      A                      A                      A
 Frequencies --     74.1695                83.9351                85.5243
 Red. masses --     36.3929                38.6684                17.5552
 Frc consts  --      0.1180                 0.1605                 0.0757
 IR Inten    --      4.5414                 2.5566                 1.9392

                     10                     11                     12
                      A                      A                      A
 Frequencies --     98.7172               103.1273               112.3240
 Red. masses --     36.1800                11.6910                15.9427
 Frc consts  --      0.2077                 0.0733                 0.1185
 IR Inten    --      0.6467                 9.2091                 0.7476

                     13                     14                     15
                      A                      A                      A
 Frequencies --    114.4417               124.6582               128.7486
 Red. masses --     33.6239                31.1235                 8.3030
 Frc consts  --      0.2595                 0.2850                 0.0811
 IR Inten    --      2.0617                 3.4621                 6.8560

                     16                     17                     18
                      A                      A                      A
 Frequencies --    137.1393               144.0181               147.9929
 Red. masses --     31.7284                 3.0626                18.8325
 Frc consts  --      0.3516                 0.0374                 0.2430
 IR Inten    --      0.1826                 6.8720                 0.9292

                     19                     20                     21
                      A                      A                      A
 Frequencies --    150.1188               153.7844               158.6143
 Red. masses --      6.9574                 8.1018                32.4477
 Frc consts  --      0.0924                 0.1129                 0.4810
 IR Inten    --      2.9797                 1.2788                 0.6345

                     22                     23                     24
                      A                      A                      A
 Frequencies --    167.3434               174.6488               178.8662
 Red. masses --     34.1918                23.6857                29.7418
 Frc consts  --      0.5641                 0.4257                 0.5606
 IR Inten    --      0.3856                 2.4719                 0.2890

                     25                     26                     27
                      A                      A                      A
 Frequencies --    180.7965               195.7511               205.6622
 Red. masses --     26.8203                38.3776                30.8402
 Frc consts  --      0.5165                 0.8664                 0.7686
 IR Inten    --      4.1020                 1.3193                 3.2965

                     28                     29                     30
                      A                      A                      A
 Frequencies --    213.9184               229.6372               242.3875
 Red. masses --     37.0576                45.1793                35.8857
 Frc consts  --      0.9991                 1.4037                 1.2422
 IR Inten    --      3.1364                 1.1666                 3.1284

                     31                     32                     33
                      A                      A                      A
 Frequencies --    249.5699               273.7592               278.0825
 Red. masses --     39.9700                37.6433                34.3613
 Frc consts  --      1.4668                 1.6622                 1.5655
 IR Inten    --      0.9552                 2.7923                 0.1799

                     34                     35                     36
                      A                      A                      A
 Frequencies --    278.4782               301.5697               310.4227
 Red. masses --     38.3839                34.8528                36.1412
 Frc consts  --      1.7538                 1.8675                 2.0519
 IR Inten    --      0.8641                 3.8796                10.5396

                     37                     38                     39
                      A                      A                      A
 Frequencies --    324.2821               326.5119               337.0852
 Red. masses --     37.1321                37.8488                36.1848
 Frc consts  --      2.3006                 2.3774                 2.4225
 IR Inten    --      4.0022                 8.0045                 1.9769

                     40                     41                     42
                      A                      A                      A
 Frequencies --    347.6947               382.0229               387.4290
 Red. masses --     41.1375                35.3118                28.0965
 Frc consts  --      2.9301                 3.0363                 2.4848
 IR Inten    --      6.0547                 5.8499                 7.5561

                     43                     44                     45
                      A                      A                      A
 Frequencies --    409.9707               415.3215               431.5638
 Red. masses --     34.9407                34.6838                35.5867
 Frc consts  --      3.4601                 3.5249                 3.9051
 IR Inten    --     20.3221                15.3853                39.2063

                     46                     47                     48
                      A                      A                      A
 Frequencies --    434.7725               439.5981               447.7186
 Red. masses --     37.1070                28.1419                36.1796
 Frc consts  --      4.1327                 3.2042                 4.2729
 IR Inten    --     13.5482                11.2274                19.1533

                     49                     50                     51
                      A                      A                      A
 Frequencies --    466.1145               518.7347               546.0170
 Red. masses --     38.6988                 1.1263                36.9683
 Frc consts  --      4.9537                 0.1786                 6.4937
 IR Inten    --     14.8727                 5.7967               127.4964

                     52                     53                     54
                      A                      A                      A
 Frequencies --    553.5749               554.0817               575.4559
 Red. masses --     37.1118                40.4328                 1.0606
 Frc consts  --      6.7006                 7.3136                 0.2069
 IR Inten    --     76.6659                90.2822                 6.2383

                     55                     56                     57
                      A                      A                      A
 Frequencies --   1213.1001              2624.1383              2656.0465
 Red. masses --      1.0376                 1.0365                 1.0384
 Frc consts  --      0.8997                 4.2051                 4.3162
 IR Inten    --     63.1727                32.6383                 0.6889

 - Thermochemistry -
 -------------------
 Temperature   298.150 Kelvin.  Pressure   1.00000 Atm.
 Atom     1 has atomic number 42 and mass  97.90550

 Molecular mass:  1005.08558 amu.
 Principal axes and moments of inertia in atomic units:
                           1         2         3
     Eigenvalues --  ******************************
           X            0.89546  -0.44200   0.05283
           Y           -0.24437  -0.38892   0.88827
           Z            0.37207   0.80832   0.45627
 This molecule is an asymmetric top.
 Rotational symmetry number  1.
 Warning -- assumption of classical behavior for rotation
           may cause significant error
 Rotational temperatures (Kelvin)      0.00688     0.00268     0.00227
 Rotational constants (GHZ):           0.14338     0.05591     0.04734
 Zero-point vibrational energy     119308.2 (Joules/Mol)
                                   28.51534 (Kcal/Mol)
 Warning -- explicit consideration of  54 degrees of freedom as
           vibrations may cause significant error
 Vibrational temperatures:     19.46    35.68    51.56    70.65    95.05
          (Kelvin)             97.84   106.71   120.76   123.05   142.03
                              148.38   161.61   164.66   179.36   185.24
                              197.31   207.21   212.93   215.99   221.26
                              228.21   240.77   251.28   257.35   260.13
                              281.64   295.90   307.78   330.40   348.74
                              359.08   393.88   400.10   400.67   433.89
                              446.63   466.57   469.78   484.99   500.26
                              549.65   557.42   589.86   597.55   620.92
                              625.54   632.48   644.17   670.63   746.34
                              785.60   796.47   797.20   827.95  1745.38
                             3775.55  3821.46

 Zero-point correction=                           0.045442 (Hartree/Particle)
 Thermal correction to Energy=                    0.076631
 Thermal correction to Enthalpy=                  0.077576
 Thermal correction to Gibbs Free Energy=        -0.021410
 Sum of electronic and zero-point Energies=          -5583.445775
 Sum of electronic and thermal Energies=             -5583.414586
 Sum of electronic and thermal Enthalpies=           -5583.413642
 Sum of electronic and thermal Free Energies=        -5583.512627

                     E (Thermal)             CV                S
                      KCal/Mol        Cal/Mol-Kelvin    Cal/Mol-Kelvin
 Total                   48.087             98.660            208.333
 Electronic               0.000              0.000              0.000
 Translational            0.889              2.981             46.597
 Rotational               0.889              2.981             37.980
 Vibrational             46.310             92.698            123.757
 Vibration     1          0.593              1.986              7.411
 Vibration     2          0.593              1.985              6.207
 Vibration     3          0.594              1.982              5.477
 Vibration     4          0.595              1.978              4.853
 Vibration     5          0.597              1.970              4.267
 Vibration     6          0.598              1.969              4.210
 Vibration     7          0.599              1.966              4.040
 Vibration     8          0.601              1.960              3.797
 Vibration     9          0.601              1.959              3.760
 Vibration    10          0.604              1.950              3.479
 Vibration    11          0.605              1.947              3.394
 Vibration    12          0.607              1.939              3.228
 Vibration    13          0.607              1.937              3.192
 Vibration    14          0.610              1.928              3.027
 Vibration    15          0.611              1.924              2.965
 Vibration    16          0.614              1.916              2.843
 Vibration    17          0.616              1.909              2.750
 Vibration    18          0.617              1.905              2.698
 Vibration    19          0.618              1.903              2.671
 Vibration    20          0.619              1.898              2.625
 Vibration    21          0.621              1.893              2.566
 Vibration    22          0.624              1.883              2.465
 Vibration    23          0.627              1.874              2.385
 Vibration    24          0.629              1.868              2.340
 Vibration    25          0.630              1.866              2.320
 Vibration    26          0.636              1.846              2.173
 Vibration    27          0.640              1.832              2.082
 Vibration    28          0.644              1.820              2.010
 Vibration    29          0.652              1.796              1.882
 Vibration    30          0.659              1.775              1.785
 Vibration    31          0.662              1.763              1.734
 Vibration    32          0.676              1.722              1.572
 Vibration    33          0.679              1.714              1.545
 Vibration    34          0.679              1.713              1.543
 Vibration    35          0.694              1.671              1.408
 Vibration    36          0.699              1.654              1.360
 Vibration    37          0.709              1.627              1.288
 Vibration    38          0.710              1.622              1.277
 Vibration    39          0.718              1.601              1.226
 Vibration    40          0.725              1.580              1.177
 Vibration    41          0.751              1.509              1.031
 Vibration    42          0.756              1.497              1.010
 Vibration    43          0.774              1.449              0.927
 Vibration    44          0.779              1.437              0.908
 Vibration    45          0.793              1.401              0.854
 Vibration    46          0.795              1.394              0.843
 Vibration    47          0.800              1.384              0.828
 Vibration    48          0.807              1.366              0.803
 Vibration    49          0.823              1.325              0.749
 Vibration    50          0.874              1.208              0.613
 Vibration    51          0.901              1.148              0.552
 Vibration    52          0.909              1.132              0.537
 Vibration    53          0.909              1.131              0.536
 Vibration    54          0.932              1.084              0.494

                           ! Non-Optimized Parameters !
 Normal termination of Gaussian 16 at Fri Dec  9 13:37:09 2022.
