 Gaussian 16, Revision C.01,
 Gaussian 16:  ES64L-G16RevC.01  3-Jul-2019

 ---------------------------------------
 # opt freq b3lyp/gen nosymm pseudo=read
 ---------------------------------------

 -------------------
 Title Card Required
 -------------------
 Symbolic Z-matrix:
 Charge =  0 Multiplicity = 1

 SCF Done:  E(RB3LYP) =  -5982.85056380     A.U. after   35 cycles
 SCF Done:  E(RB3LYP) =  -5982.87296637     A.U. after   21 cycles
 SCF Done:  E(RB3LYP) =  -5982.88365145     A.U. after   22 cycles
 SCF Done:  E(RB3LYP) =  -5982.89085524     A.U. after   21 cycles
 SCF Done:  E(RB3LYP) =  -5982.89944128     A.U. after   22 cycles
 SCF Done:  E(RB3LYP) =  -5982.90111942     A.U. after   20 cycles
 SCF Done:  E(RB3LYP) =  -5982.90208805     A.U. after   21 cycles
 SCF Done:  E(RB3LYP) =  -5982.90222769     A.U. after   21 cycles
 SCF Done:  E(RB3LYP) =  -5982.90255086     A.U. after   19 cycles
 SCF Done:  E(RB3LYP) =  -5982.90281985     A.U. after   20 cycles
 SCF Done:  E(RB3LYP) =  -5982.91906393     A.U. after   19 cycles
 SCF Done:  E(RB3LYP) =  -5982.91906536     A.U. after   18 cycles
 SCF Done:  E(RB3LYP) =  -5982.91906725     A.U. after   19 cycles
 SCF Done:  E(RB3LYP) =  -5982.91906922     A.U. after   19 cycles
 SCF Done:  E(RB3LYP) =  -5982.91907007     A.U. after   19 cycles
 SCF Done:  E(RB3LYP) =  -5982.91907114     A.U. after   18 cycles
 SCF Done:  E(RB3LYP) =  -5982.91907152     A.U. after   17 cycles
 SCF Done:  E(RB3LYP) =  -5982.91907172     A.U. after   14 cycles
 SCF Done:  E(RB3LYP) =  -5982.91907193     A.U. after   18 cycles
 Optimization completed.
    -- Stationary point found.
 Normal termination of Gaussian 16 at Fri Dec  9 14:01:17 2022.

 ------------------------------------------------------------------
 #N Geom=AllCheck Guess=TCheck SCRF=Check GenChk RB3LYP/ChkBas Freq
 ------------------------------------------------------------------

 Structure from the checkpoint file:  "/home/chesagar/scratch/Gau-96787.chk"
 -------------------
 Title Card Required
 -------------------
 Charge =  0 Multiplicity = 1

                          Input orientation:
 ---------------------------------------------------------------------
 Center     Atomic      Atomic             Coordinates (Angstroms)
 Number     Number       Type             X           Y           Z
 ---------------------------------------------------------------------
      1         42           0        0.097571    1.441428   11.615920
      2         16           0        1.031443    3.351163   12.542933
      3         16           0       -2.181039    1.175478   11.948943
      4         16           0       -0.027970    1.561198    9.209090
      5         16           0        1.618919   -0.252444   11.516153
      6         42           0       -1.936564    2.702174   10.155642
      7         16           0       -3.491184    2.181764    8.485461
      8         16           0       -2.876957    4.537193   11.389390
      9         42           0        1.037157    3.450647   10.231138
     10         16           0       -0.597185    4.674718    8.995618
     11         16           0        3.164671    3.456946    9.479017
     12         42           0        3.174930    1.189418   10.269678
     13         42           0       -2.427456    4.105737    7.632657
     14         16           0        4.858674    1.177724   11.558642
     15         16           0        3.631713    0.055011    8.536644
     16         16           0       -3.951605    5.763486    8.101678
     17         16           0       -1.951214    3.662879    5.604264
     18         42           0       -4.344185    4.111016    9.738700
     19         16           0       -6.070309    2.381311   10.620101
     20          1           0       -7.272358    2.824287   10.191459
     21          1           0       -6.037646    1.346242    9.752838
     22         16           0       -5.790400    6.071238   10.779445
     23          1           0       -6.810760    5.546479   11.494932
     24          1           0       -6.592773    6.473321    9.770941
 ---------------------------------------------------------------------

 SCF Done:  E(RB3LYP) =  -5982.91907193     A.U. after    1 cycles

 Alpha  occ. eigenvalues --  -88.97453 -88.96234 -88.90248 -88.89198 -88.88904
 Alpha  occ. eigenvalues --  -88.88759 -88.88521 -88.87251 -88.87180 -88.86881
 Alpha  occ. eigenvalues --  -88.85929 -88.85817 -88.85808 -88.85700  -8.05104
 Alpha  occ. eigenvalues --   -8.03793  -7.97764  -7.96761  -7.96568  -7.96346
 Alpha  occ. eigenvalues --   -7.96341  -7.95054  -7.94901  -7.94737  -7.93861
 Alpha  occ. eigenvalues --   -7.93674  -7.93628  -7.93625  -6.01413  -6.01134
 Alpha  occ. eigenvalues --   -6.00643  -6.00121  -5.99842  -5.99305  -5.93799
 Alpha  occ. eigenvalues --   -5.93740  -5.93660  -5.92814  -5.92699  -5.92649
 Alpha  occ. eigenvalues --   -5.92601  -5.92560  -5.92442  -5.92403  -5.92359
 Alpha  occ. eigenvalues --   -5.92356  -5.92272  -5.92227  -5.92147  -5.91070
 Alpha  occ. eigenvalues --   -5.91005  -5.90924  -5.90902  -5.90849  -5.90814
 Alpha  occ. eigenvalues --   -5.90776  -5.90662  -5.90598  -5.89955  -5.89823
 Alpha  occ. eigenvalues --   -5.89731  -5.89709  -5.89707  -5.89622  -5.89604
 Alpha  occ. eigenvalues --   -5.89602  -5.89589  -5.89526  -5.89384  -5.89371
 Alpha  occ. eigenvalues --   -2.54487  -2.53943  -2.53665  -2.53297  -2.53074
 Alpha  occ. eigenvalues --   -2.52695  -1.57602  -1.57244  -1.57239  -1.56920
 Alpha  occ. eigenvalues --   -1.56671  -1.56422  -1.56256  -1.56203  -1.56092
 Alpha  occ. eigenvalues --   -1.55776  -1.55675  -1.55490  -1.55107  -1.54998
 Alpha  occ. eigenvalues --   -1.54757  -1.54702  -1.53864  -1.53324  -0.84543
 Alpha  occ. eigenvalues --   -0.83106  -0.73933  -0.72780  -0.71651  -0.70978
 Alpha  occ. eigenvalues --   -0.70826  -0.70329  -0.69731  -0.69456  -0.68332
 Alpha  occ. eigenvalues --   -0.67503  -0.67175  -0.66765  -0.54161  -0.52660
 Alpha  occ. eigenvalues --   -0.47617  -0.46406  -0.41268  -0.40579  -0.40254
 Alpha  occ. eigenvalues --   -0.39703  -0.39266  -0.38855  -0.38515  -0.38012
 Alpha  occ. eigenvalues --   -0.37767  -0.37090  -0.36444  -0.36243  -0.36005
 Alpha  occ. eigenvalues --   -0.35711  -0.35661  -0.35107  -0.34942  -0.34691
 Alpha  occ. eigenvalues --   -0.34330  -0.34277  -0.33741  -0.33540  -0.33161
 Alpha  occ. eigenvalues --   -0.32691  -0.32555  -0.32118  -0.31993  -0.31214
 Alpha  occ. eigenvalues --   -0.30493  -0.30298  -0.29370  -0.29017  -0.28422
 Alpha  occ. eigenvalues --   -0.28033  -0.27578  -0.26895  -0.26285  -0.25996
 Alpha  occ. eigenvalues --   -0.25585  -0.24902  -0.24448  -0.23309  -0.22382
 Alpha  occ. eigenvalues --   -0.20308
 Alpha virt. eigenvalues --   -0.15093  -0.14019  -0.13364  -0.12930  -0.12736
 Alpha virt. eigenvalues --   -0.12009  -0.11856  -0.11549  -0.10724  -0.10425
 Alpha virt. eigenvalues --   -0.10108  -0.09811  -0.09203  -0.08754  -0.08241

 Mulliken charges:
               1
     1  Mo  -0.116162
     2  S   -0.009786
     3  S   -0.080038
     4  S    0.276845
     5  S   -0.087799
     6  Mo  -0.188378
     7  S    0.029149
     8  S    0.093742
     9  Mo  -0.030452
    10  S   -0.032702
    11  S   -0.077674
    12  Mo   0.245307
    13  Mo   0.335091
    14  S   -0.157364
    15  S   -0.158439
    16  S   -0.110785
    17  S   -0.259269
    18  Mo  -0.308565
    19  S    0.056864
    20  H    0.120067
    21  H    0.156357
    22  S    0.068687
    23  H    0.102896
    24  H    0.132407
 Sum of Mulliken charges =  -0.00000

 Dipole moment (field-independent basis, Debye):
    X=            -16.0301    Y=              3.3444    Z=              2.0592  Tot=             16.5043
 Quadrupole moment (field-independent basis, Debye-Ang):
   XX=           -229.9558   YY=           -304.9232   ZZ=           -298.4753
   XY=            -52.1821   XZ=           -169.3186   YZ=             45.0293

  Exact polarizability:     802.325    -175.601     454.885      46.527     -48.729     498.666
 Approx polarizability:    2014.993    -394.868    1410.010     133.387    -176.528    1704.326

                      1                      2                      3
                      A                      A                      A
 Frequencies --     17.2435                22.3297                34.5942
 Red. masses --      6.4612                18.7499                26.8663
 Frc consts  --      0.0011                 0.0055                 0.0189
 IR Inten    --      2.6630                 1.2962                 1.0179

                      4                      5                      6
                      A                      A                      A
 Frequencies --     38.5813                55.2389                57.0842
 Red. masses --     15.9279                11.8062                17.0572
 Frc consts  --      0.0140                 0.0212                 0.0327
 IR Inten    --      0.1903                 1.0528                 0.2787

                      7                      8                      9
                      A                      A                      A
 Frequencies --     60.8568                68.9550                76.3947
 Red. masses --      4.6849                 3.1078                 8.5218
 Frc consts  --      0.0102                 0.0087                 0.0293
 IR Inten    --      1.1588                 2.2822                 4.0986

                     10                     11                     12
                      A                      A                      A
 Frequencies --     81.9660                85.7417                90.6799
 Red. masses --      4.7048                 4.6442                 3.9470
 Frc consts  --      0.0186                 0.0201                 0.0191
 IR Inten    --      4.2901                 3.3556                 2.2344

                     13                     14                     15
                      A                      A                      A
 Frequencies --     98.5558               104.8262               106.2997
 Red. masses --     13.3737                 4.9240                 8.6132
 Frc consts  --      0.0765                 0.0319                 0.0573
 IR Inten    --      1.4076                 3.3294                 2.6040

                     16                     17                     18
                      A                      A                      A
 Frequencies --    118.5784               121.3447               132.0613
 Red. masses --      4.4929                33.9080                28.9943
 Frc consts  --      0.0372                 0.2942                 0.2979
 IR Inten    --      4.4361                 2.1142                 0.4206

                     19                     20                     21
                      A                      A                      A
 Frequencies --    135.6804               136.8306               142.1280
 Red. masses --     17.3664                32.0776                32.5726
 Frc consts  --      0.1884                 0.3538                 0.3877
 IR Inten    --      2.8560                 0.1767                 0.4368

                     22                     23                     24
                      A                      A                      A
 Frequencies --    143.6518               156.3521               161.3490
 Red. masses --     12.2258                22.3724                21.7639
 Frc consts  --      0.1486                 0.3222                 0.3338
 IR Inten    --      0.4501                 0.0119                 1.5136

                     25                     26                     27
                      A                      A                      A
 Frequencies --    163.8700               173.2766               179.3263
 Red. masses --     28.1121                18.3879                34.0703
 Frc consts  --      0.4448                 0.3253                 0.6455
 IR Inten    --      3.9953                 0.2015                 0.4198

                     28                     29                     30
                      A                      A                      A
 Frequencies --    184.3028               196.3192               197.8540
 Red. masses --     32.6660                32.7911                18.5354
 Frc consts  --      0.6537                 0.7446                 0.4275
 IR Inten    --      2.2102                 2.3947                 0.2906

                     31                     32                     33
                      A                      A                      A
 Frequencies --    199.0345               225.7153               230.7794
 Red. masses --     29.7726                18.6328                49.5177
 Frc consts  --      0.6949                 0.5593                 1.5538
 IR Inten    --      0.0294                 1.3471                 0.2823

                     34                     35                     36
                      A                      A                      A
 Frequencies --    249.4347               273.8500               275.6284
 Red. masses --     36.1671                37.4122                39.6568
 Frc consts  --      1.3258                 1.6531                 1.7751
 IR Inten    --      0.9303                 5.0316                 2.1435

                     37                     38                     39
                      A                      A                      A
 Frequencies --    285.0849               300.5239               306.7347
 Red. masses --     37.5320                31.4128                31.5190
 Frc consts  --      1.7972                 1.6715                 1.7472
 IR Inten    --      1.2228                 2.0842                 0.1554

                     40                     41                     42
                      A                      A                      A
 Frequencies --    310.6226               315.4803               319.8473
 Red. masses --     34.4813                35.0861                39.5948
 Frc consts  --      1.9602                 2.0575                 2.3866
 IR Inten    --      0.6874                 0.8890                 0.1320

                     43                     44                     45
                      A                      A                      A
 Frequencies --    333.6032               346.9060               361.4664
 Red. masses --     37.8360                35.2774                38.1581
 Frc consts  --      2.4809                 2.5013                 2.9375
 IR Inten    --      1.8917                 1.8609                 3.6837

                     46                     47                     48
                      A                      A                      A
 Frequencies --    395.7451               406.7449               422.9007
 Red. masses --     33.7995                38.1142                32.5415
 Frc consts  --      3.1188                 3.7152                 3.4290
 IR Inten    --     17.3266                15.8023                18.0201

                     49                     50                     51
                      A                      A                      A
 Frequencies --    427.9718               433.1733               435.6483
 Red. masses --     36.6117                38.9256                 8.4965
 Frc consts  --      3.9509                 4.3034                 0.9501
 IR Inten    --     32.5744                15.4328                 5.4510

                     52                     53                     54
                      A                      A                      A
 Frequencies --    449.6802               452.7953               466.6181
 Red. masses --     32.2702                11.6705                 1.2009
 Frc consts  --      3.8447                 1.4098                 0.1541
 IR Inten    --      5.1105                26.3012                11.9484

                     55                     56                     57
                      A                      A                      A
 Frequencies --    496.7862               544.2045               552.0766
 Red. masses --      1.1592                36.8518                33.5222
 Frc consts  --      0.1686                 6.4303                 6.0198
 IR Inten    --      3.7068                99.1387                86.6177

                     58                     59                     60
                      A                      A                      A
 Frequencies --    554.5628               569.4553               577.2281
 Red. masses --     40.4869                 1.0848                 1.0593
 Frc consts  --      7.3361                 0.2073                 0.2079
 IR Inten    --     85.3702                 7.0015                 4.1623

                     61                     62                     63
                      A                      A                      A
 Frequencies --   1214.8652              1221.0606              2652.4842
 Red. masses --      1.0380                 1.0382                 1.0359
 Frc consts  --      0.9026                 0.9120                 4.2940
 IR Inten    --     23.4465                 6.0419                11.1007

                     64                     65                     66
                      A                      A                      A
 Frequencies --   2659.9550              2676.2743              2680.9662
 Red. masses --      1.0354                 1.0399                 1.0395
 Frc consts  --      4.3162                 4.3882                 4.4022
 IR Inten    --     15.9003                 0.6005                 1.0118

 - Thermochemistry -
 -------------------
 Temperature   298.150 Kelvin.  Pressure   1.00000 Atm.
 Atom     1 has atomic number 42 and mass  97.90550

 Molecular mass:  1039.07331 amu.
 Principal axes and moments of inertia in atomic units:
                           1         2         3
     Eigenvalues --  ******************************
           X            0.91313  -0.29633   0.27995
           Y           -0.37142  -0.32168   0.87096
           Z            0.16804   0.89928   0.40380
 This molecule is an asymmetric top.
 Rotational symmetry number  1.
 Warning -- assumption of classical behavior for rotation
           may cause significant error
 Rotational temperatures (Kelvin)      0.00704     0.00217     0.00197
 Rotational constants (GHZ):           0.14677     0.04524     0.04098
 Zero-point vibrational energy     167286.9 (Joules/Mol)
                                   39.98252 (Kcal/Mol)
 Warning -- explicit consideration of  60 degrees of freedom as
           vibrations may cause significant error
 Vibrational temperatures:     24.81    32.13    49.77    55.51    79.48
          (Kelvin)             82.13    87.56    99.21   109.91   117.93
                              123.36   130.47   141.80   150.82   152.94
                              170.61   174.59   190.01   195.21   196.87
                              204.49   206.68   224.96   232.15   235.77
                              249.31   258.01   265.17   282.46   284.67
                              286.37   324.75   332.04   358.88   394.01
                              396.57   410.17   432.39   441.32   446.92
                              453.91   460.19   479.98   499.12   520.07
                              569.39   585.22   608.46   615.76   623.24
                              626.80   646.99   651.47   671.36   714.76
                              782.99   794.32   797.89   819.32   830.50
                             1747.92  1756.83  3816.33  3827.08  3850.56
                             3857.31

 Zero-point correction=                           0.063716 (Hartree/Particle)
 Thermal correction to Energy=                    0.098336
 Thermal correction to Enthalpy=                  0.099281
 Thermal correction to Gibbs Free Energy=        -0.007833
 Sum of electronic and zero-point Energies=          -5982.855356
 Sum of electronic and thermal Energies=             -5982.820735
 Sum of electronic and thermal Enthalpies=           -5982.819791
 Sum of electronic and thermal Free Energies=        -5982.926905

                     E (Thermal)             CV                S
                      KCal/Mol        Cal/Mol-Kelvin    Cal/Mol-Kelvin
 Total                   61.707            109.064            225.440
 Electronic               0.000              0.000              0.000
 Translational            0.889              2.981             46.696
 Rotational               0.889              2.981             38.310
 Vibrational             59.930            103.103            140.434
 Vibration     1          0.593              1.986              6.929
 Vibration     2          0.593              1.985              6.415
 Vibration     3          0.594              1.983              5.547
 Vibration     4          0.594              1.981              5.331
 Vibration     5          0.596              1.975              4.620
 Vibration     6          0.596              1.975              4.556
 Vibration     7          0.597              1.973              4.429
 Vibration     8          0.598              1.969              4.183
 Vibration     9          0.599              1.965              3.981
 Vibration    10          0.600              1.961              3.843
 Vibration    11          0.601              1.959              3.755
 Vibration    12          0.602              1.956              3.645
 Vibration    13          0.604              1.950              3.483
 Vibration    14          0.605              1.945              3.363
 Vibration    15          0.605              1.944              3.335
 Vibration    16          0.609              1.934              3.123
 Vibration    17          0.609              1.931              3.079
 Vibration    18          0.612              1.921              2.916
 Vibration    19          0.614              1.918              2.864
 Vibration    20          0.614              1.917              2.848
 Vibration    21          0.616              1.911              2.775
 Vibration    22          0.616              1.910              2.755
 Vibration    23          0.620              1.896              2.593
 Vibration    24          0.622              1.890              2.534
 Vibration    25          0.623              1.887              2.505
 Vibration    26          0.627              1.875              2.400
 Vibration    27          0.629              1.868              2.335
 Vibration    28          0.631              1.861              2.284
 Vibration    29          0.636              1.845              2.167
 Vibration    30          0.637              1.843              2.153
 Vibration    31          0.637              1.841              2.142
 Vibration    32          0.650              1.802              1.913
 Vibration    33          0.652              1.794              1.873
 Vibration    34          0.662              1.764              1.735
 Vibration    35          0.676              1.722              1.572
 Vibration    36          0.677              1.718              1.561
 Vibration    37          0.683              1.701              1.503
 Vibration    38          0.693              1.673              1.414
 Vibration    39          0.697              1.661              1.380
 Vibration    40          0.699              1.653              1.359
 Vibration    41          0.703              1.644              1.333
 Vibration    42          0.706              1.636              1.311
 Vibration    43          0.715              1.608              1.243
 Vibration    44          0.725              1.582              1.180
 Vibration    45          0.736              1.552              1.116
 Vibration    46          0.762              1.479              0.978
 Vibration    47          0.772              1.456              0.938
 Vibration    48          0.785              1.420              0.882
 Vibration    49          0.789              1.409              0.865
 Vibration    50          0.794              1.398              0.848
 Vibration    51          0.796              1.393              0.840
 Vibration    52          0.809              1.362              0.797
 Vibration    53          0.811              1.355              0.787
 Vibration    54          0.824              1.324              0.747
 Vibration    55          0.852              1.257              0.666
 Vibration    56          0.899              1.152              0.556
 Vibration    57          0.907              1.135              0.540
 Vibration    58          0.910              1.130              0.535
 Vibration    59          0.926              1.097              0.505
 Vibration    60          0.934              1.081              0.491

                           ! Non-Optimized Parameters !
 Normal termination of Gaussian 16 at Fri Dec  9 14:05:10 2022.
