 Gaussian 16, Revision C.01,
 Gaussian 16:  ES64L-G16RevC.01  3-Jul-2019

 -----------------------------------------------------------
 # opt=(calcfc,ts,noeigen) freq b3lyp/gen nosymm pseudo=read
 -----------------------------------------------------------

 -------------------
 Title Card Required
 -------------------
 Symbolic Z-matrix:
 Charge =  0 Multiplicity = 1

 SCF Done:  E(RB3LYP) =  -5982.81621887     A.U. after   35 cycles
 SCF Done:  E(RB3LYP) =  -5982.83051364     A.U. after   22 cycles
 SCF Done:  E(RB3LYP) =  -5982.83575415     A.U. after   22 cycles
 SCF Done:  E(RB3LYP) =  -5982.83956010     A.U. after   23 cycles
 SCF Done:  E(RB3LYP) =  -5982.84466554     A.U. after   22 cycles
 SCF Done:  E(RB3LYP) =  -5982.84846697     A.U. after   23 cycles
 SCF Done:  E(RB3LYP) =  -5982.85138092     A.U. after   22 cycles
 SCF Done:  E(RB3LYP) =  -5982.85269263     A.U. after   23 cycles
 SCF Done:  E(RB3LYP) =  -5982.85375103     A.U. after   21 cycles
 SCF Done:  E(RB3LYP) =  -5982.85470014     A.U. after   21 cycles
 SCF Done:  E(RB3LYP) =  -5982.86871080     A.U. after   16 cycles
 SCF Done:  E(RB3LYP) =  -5982.86871087     A.U. after   14 cycles
 SCF Done:  E(RB3LYP) =  -5982.86871087     A.U. after   13 cycles
 SCF Done:  E(RB3LYP) =  -5982.86783500     A.U. after   22 cycles
 SCF Done:  E(RB3LYP) =  -5982.86860292     A.U. after   21 cycles
 SCF Done:  E(RB3LYP) =  -5982.86864004     A.U. after   22 cycles
 SCF Done:  E(RB3LYP) =  -5982.86870904     A.U. after   20 cycles
 SCF Done:  E(RB3LYP) =  -5982.86870843     A.U. after   18 cycles
 SCF Done:  E(RB3LYP) =  -5982.86871094     A.U. after   17 cycles
 Optimization completed.
    -- Stationary point found.
 Normal termination of Gaussian 16 at Fri Dec  9 14:19:07 2022.

 ------------------------------------------------------------------
 #N Geom=AllCheck Guess=TCheck SCRF=Check GenChk RB3LYP/ChkBas Freq
 ------------------------------------------------------------------

 Structure from the checkpoint file:  "/home/chesagar/scratch/Gau-228496.chk"
 -------------------
 Title Card Required
 -------------------
 Charge =  0 Multiplicity = 1

                          Input orientation:
 ---------------------------------------------------------------------
 Center     Atomic      Atomic             Coordinates (Angstroms)
 Number     Number       Type             X           Y           Z
 ---------------------------------------------------------------------
      1         42           0        0.199017    1.412954   11.598597
      2         16           0        1.219747    3.293011   12.529788
      3         16           0       -2.026301    1.531536   12.295426
      4         16           0        0.014146    1.617559    9.225595
      5         16           0        1.698100   -0.295762   11.547139
      6         42           0       -1.870677    2.692437   10.277272
      7         16           0       -3.360255    2.135729    8.564663
      8         16           0       -2.960301    4.620741   11.360697
      9         42           0        1.087313    3.478301   10.247086
     10         16           0       -0.641555    4.762012    9.154760
     11         16           0        3.178206    3.434708    9.416293
     12         42           0        3.201364    1.164100   10.247051
     13         42           0       -2.348940    4.051982    7.679588
     14         16           0        4.933063    1.161682   11.464747
     15         16           0        3.594633    0.016883    8.509508
     16         16           0       -4.022643    5.556220    7.916911
     17         16           0       -1.587988    3.599431    5.752693
     18         42           0       -4.459148    4.085996    9.833723
     19         16           0       -6.049491    2.473765   10.649615
     20          1           0       -7.176375    3.724053   11.192328
     21          1           0       -6.756771    2.303181    9.508782
     22         16           0       -5.943592    5.800539   10.649367
     23          1           0       -7.132449    4.652005   11.210189
     24          1           0       -6.727330    6.024884    9.568661
 ---------------------------------------------------------------------

 SCF Done:  E(RB3LYP) =  -5982.86871094     A.U. after    2 cycles

 Alpha  occ. eigenvalues --  -88.94048 -88.93509 -88.91269 -88.90561 -88.90415
 Alpha  occ. eigenvalues --  -88.89750 -88.89349 -88.88648 -88.88349 -88.88116
 Alpha  occ. eigenvalues --  -88.87476 -88.87363 -88.87058 -88.87048  -8.01701
 Alpha  occ. eigenvalues --   -8.01061  -7.98785  -7.98155  -7.97994  -7.97286
 Alpha  occ. eigenvalues --   -7.97165  -7.96441  -7.96053  -7.95965  -7.95366
 Alpha  occ. eigenvalues --   -7.95291  -7.94971  -7.94869  -5.97901  -5.97687
 Alpha  occ. eigenvalues --   -5.97373  -5.97251  -5.97124  -5.96687  -5.94834
 Alpha  occ. eigenvalues --   -5.94765  -5.94654  -5.94184  -5.94147  -5.94041
 Alpha  occ. eigenvalues --   -5.94005  -5.93929  -5.93886  -5.93397  -5.93284
 Alpha  occ. eigenvalues --   -5.93223  -5.93092  -5.93081  -5.93020  -5.92470
 Alpha  occ. eigenvalues --   -5.92386  -5.92303  -5.92066  -5.92015  -5.92012
 Alpha  occ. eigenvalues --   -5.91941  -5.91903  -5.91804  -5.91392  -5.91390
 Alpha  occ. eigenvalues --   -5.91296  -5.91250  -5.91222  -5.91051  -5.91027
 Alpha  occ. eigenvalues --   -5.90962  -5.90944  -5.90854  -5.90715  -5.90628
 Alpha  occ. eigenvalues --   -2.55816  -2.55484  -2.55228  -2.54477  -2.54068
 Alpha  occ. eigenvalues --   -2.53609  -1.59020  -1.58566  -1.58314  -1.58188
 Alpha  occ. eigenvalues --   -1.58041  -1.57744  -1.57641  -1.57553  -1.57253
 Alpha  occ. eigenvalues --   -1.57226  -1.56916  -1.56556  -1.56369  -1.56222
 Alpha  occ. eigenvalues --   -1.55961  -1.55695  -1.54952  -1.54681  -0.80255
 Alpha  occ. eigenvalues --   -0.78174  -0.74996  -0.73696  -0.72697  -0.71960
 Alpha  occ. eigenvalues --   -0.71869  -0.71432  -0.70839  -0.70724  -0.69516
 Alpha  occ. eigenvalues --   -0.68814  -0.68764  -0.68088  -0.53173  -0.47153
 Alpha  occ. eigenvalues --   -0.46800  -0.42401  -0.41786  -0.41059  -0.40288
 Alpha  occ. eigenvalues --   -0.40197  -0.39889  -0.39483  -0.38993  -0.38757
 Alpha  occ. eigenvalues --   -0.38198  -0.37308  -0.37283  -0.37131  -0.36937
 Alpha  occ. eigenvalues --   -0.36464  -0.36347  -0.35988  -0.35803  -0.35748
 Alpha  occ. eigenvalues --   -0.35522  -0.35221  -0.34588  -0.34407  -0.34248
 Alpha  occ. eigenvalues --   -0.33572  -0.33384  -0.32910  -0.32765  -0.32309
 Alpha  occ. eigenvalues --   -0.31834  -0.31107  -0.30621  -0.30093  -0.29491
 Alpha  occ. eigenvalues --   -0.29051  -0.28799  -0.28291  -0.27724  -0.27415
 Alpha  occ. eigenvalues --   -0.26978  -0.25953  -0.25335  -0.24396  -0.23264
 Alpha  occ. eigenvalues --   -0.21773
 Alpha virt. eigenvalues --   -0.16612  -0.15958  -0.14726  -0.14487  -0.14065
 Alpha virt. eigenvalues --   -0.13408  -0.13238  -0.12992  -0.12611  -0.11924
 Alpha virt. eigenvalues --   -0.11521  -0.10960  -0.10800  -0.10404  -0.09736

 Mulliken charges:
               1
     1  Mo  -0.136373
     2  S    0.035027
     3  S   -0.054379
     4  S    0.265327
     5  S   -0.084198
     6  Mo  -0.185946
     7  S    0.085010
     8  S    0.115295
     9  Mo  -0.045764
    10  S   -0.016756
    11  S   -0.061169
    12  Mo   0.239231
    13  Mo   0.302460
    14  S   -0.137554
    15  S   -0.137843
    16  S   -0.084193
    17  S   -0.214482
    18  Mo  -0.273666
    19  S    0.038148
    20  H    0.019642
    21  H    0.130921
    22  S    0.068349
    23  H    0.013642
    24  H    0.119271
 Sum of Mulliken charges =  -0.00000

 Dipole moment (field-independent basis, Debye):
    X=             -9.3413    Y=              2.1273    Z=              0.1912  Tot=              9.5824
 Quadrupole moment (field-independent basis, Debye-Ang):
   XX=           -274.1237   YY=           -314.8116   ZZ=           -329.5743
   XY=            -27.1117   XZ=            -90.0976   YZ=             23.4753

  Exact polarizability:     898.189    -196.498     458.618      15.399     -41.052     496.392
 Approx polarizability:    2242.081    -426.926    1439.163      11.313    -136.214    1723.523

 ******    1 imaginary frequencies (negative Signs) ******

                      1                      2                      3
                      A                      A                      A
 Frequencies --   -998.2616                23.7198                30.2822
 Red. masses --      1.1277                23.7003                15.7752
 Frc consts  --      0.6621                 0.0079                 0.0085
 IR Inten    --   4748.3766                 0.2503                 0.5199

                      4                      5                      6
                      A                      A                      A
 Frequencies --     38.1288                42.7413                56.8978
 Red. masses --     16.1079                24.3774                32.2015
 Frc consts  --      0.0138                 0.0262                 0.0614
 IR Inten    --      0.7773                 0.2501                 0.5813

                      7                      8                      9
                      A                      A                      A
 Frequencies --     68.9672                70.7914                79.3107
 Red. masses --     30.3888                28.2656                35.9416
 Frc consts  --      0.0852                 0.0835                 0.1332
 IR Inten    --      0.2809                 0.1653                 0.5292

                     10                     11                     12
                      A                      A                      A
 Frequencies --     90.0773                93.2401               100.3395
 Red. masses --     26.2429                20.0772                26.1085
 Frc consts  --      0.1255                 0.1028                 0.1549
 IR Inten    --      1.1335                 0.1600                 0.6076

                     13                     14                     15
                      A                      A                      A
 Frequencies --    109.9416               111.5000               124.8540
 Red. masses --     33.8605                35.1585                33.9298
 Frc consts  --      0.2411                 0.2575                 0.3116
 IR Inten    --      0.2250                 0.7476                 0.2398

                     16                     17                     18
                      A                      A                      A
 Frequencies --    127.1286               129.8520               139.2749
 Red. masses --     23.8933                27.1001                38.6027
 Frc consts  --      0.2275                 0.2692                 0.4412
 IR Inten    --      0.1135                 0.0685                 0.2992

                     19                     20                     21
                      A                      A                      A
 Frequencies --    141.1462               143.8687               148.1025
 Red. masses --     24.4062                35.2768                36.4022
 Frc consts  --      0.2865                 0.4302                 0.4704
 IR Inten    --      1.9567                 0.1166                 0.2623

                     22                     23                     24
                      A                      A                      A
 Frequencies --    161.1358               165.1105               166.1941
 Red. masses --     30.5229                29.4116                34.7358
 Frc consts  --      0.4669                 0.4724                 0.5653
 IR Inten    --      2.9466                 0.4169                 0.4337

                     25                     26                     27
                      A                      A                      A
 Frequencies --    183.9458               190.5261               197.4999
 Red. masses --     37.4145                37.0989                34.3673
 Frc consts  --      0.7459                 0.7935                 0.7898
 IR Inten    --      0.6687                 2.7114                 0.7241

                     28                     29                     30
                      A                      A                      A
 Frequencies --    208.5909               225.0345               239.4858
 Red. masses --     38.2724                33.8580                13.5918
 Frc consts  --      0.9811                 1.0102                 0.4593
 IR Inten    --      0.6081                 0.1377                 6.8962

                     31                     32                     33
                      A                      A                      A
 Frequencies --    260.9728               262.7166               271.9744
 Red. masses --     20.5895                 1.2704                13.7460
 Frc consts  --      0.8262                 0.0517                 0.5991
 IR Inten    --      4.1860                 5.9102                 0.9455

                     34                     35                     36
                      A                      A                      A
 Frequencies --    274.7792               285.8270               293.6850
 Red. masses --     37.5090                34.1459                36.6655
 Frc consts  --      1.6686                 1.6436                 1.8632
 IR Inten    --      2.8215                 1.5247                 0.4341

                     37                     38                     39
                      A                      A                      A
 Frequencies --    302.0149               307.0164               315.6187
 Red. masses --     32.6004                24.6881                34.9510
 Frc consts  --      1.7520                 1.3711                 2.0513
 IR Inten    --      1.4817                 1.7263                 1.3376

                     40                     41                     42
                      A                      A                      A
 Frequencies --    324.5001               326.8145               335.3408
 Red. masses --     18.7470                30.2706                35.9690
 Frc consts  --      1.1631                 1.9049                 2.3831
 IR Inten    --      4.3610                 1.4757                 2.4426

                     43                     44                     45
                      A                      A                      A
 Frequencies --    350.8490               358.6399               362.5805
 Red. masses --     38.0466                31.1820                 7.8938
 Frc consts  --      2.7593                 2.3630                 0.6114
 IR Inten    --      1.3286                 5.9979               128.7358

                     46                     47                     48
                      A                      A                      A
 Frequencies --    398.9633               419.0301               424.9092
 Red. masses --     34.0855                36.8020                24.7150
 Frc consts  --      3.1966                 3.8073                 2.6291
 IR Inten    --     12.3112                25.6991                14.4981

                     49                     50                     51
                      A                      A                      A
 Frequencies --    432.0721               438.0660               445.3071
 Red. masses --     31.6069                30.8751                30.3879
 Frc consts  --      3.4765                 3.4909                 3.5503
 IR Inten    --     43.9326                 4.6948                 8.8174

                     52                     53                     54
                      A                      A                      A
 Frequencies --    450.6482               458.6340               473.8767
 Red. masses --     22.0292                 2.9909                 1.6424
 Frc consts  --      2.6359                 0.3707                 0.2173
 IR Inten    --      7.1082                23.7577                13.5961

                     55                     56                     57
                      A                      A                      A
 Frequencies --    547.2716               557.6821               559.7854
 Red. masses --     37.1090                40.5643                37.9873
 Frc consts  --      6.5484                 7.4331                 7.0134
 IR Inten    --     87.3424                41.2326               107.6728

                     58                     59                     60
                      A                      A                      A
 Frequencies --    569.2907               638.2632               780.6669
 Red. masses --      1.0970                 1.0735                 1.0328
 Frc consts  --      0.2095                 0.2577                 0.3708
 IR Inten    --      4.6957                 5.4292                 0.6905

                     61                     62                     63
                      A                      A                      A
 Frequencies --    982.8254              1031.9829              1178.5110
 Red. masses --      1.0639                 1.0086                 1.0120
 Frc consts  --      0.6055                 0.6329                 0.8281
 IR Inten    --     69.8911                 6.8152                 2.2923

                     64                     65                     66
                      A                      A                      A
 Frequencies --   1738.7224              2643.0513              2658.2560
 Red. masses --      1.0219                 1.0384                 1.0382
 Frc consts  --      1.8201                 4.2741                 4.3226
 IR Inten    --    756.4920                 0.2867                 7.3204

 - Thermochemistry -
 -------------------
 Temperature   298.150 Kelvin.  Pressure   1.00000 Atm.
 Atom     1 has atomic number 42 and mass  97.90550

 Molecular mass:  1039.07331 amu.
 Principal axes and moments of inertia in atomic units:
                           1         2         3
     Eigenvalues --  ******************************
           X            0.91900  -0.27311   0.28433
           Y           -0.36376  -0.30928   0.87865
           Z            0.15203   0.91091   0.38357
 This molecule is an asymmetric top.
 Rotational symmetry number  1.
 Warning -- assumption of classical behavior for rotation
           may cause significant error
 Rotational temperatures (Kelvin)      0.00720     0.00216     0.00194
 Rotational constants (GHZ):           0.14993     0.04507     0.04052
    1 imaginary frequencies ignored.
 Zero-point vibrational energy     155926.3 (Joules/Mol)
                                   37.26727 (Kcal/Mol)
 Warning -- explicit consideration of  57 degrees of freedom as
           vibrations may cause significant error
 Vibrational temperatures:     34.13    43.57    54.86    61.50    81.86
          (Kelvin)             99.23   101.85   114.11   129.60   134.15
                              144.37   158.18   160.42   179.64   182.91
                              186.83   200.39   203.08   207.00   213.09
                              231.84   237.56   239.12   264.66   274.12
                              284.16   300.12   323.77   344.57   375.48
                              377.99   391.31   395.35   411.24   422.55
                              434.53   441.73   454.10   466.88   470.21
                              482.48   504.79   516.00   521.67   574.02
                              602.89   611.35   621.66   630.28   640.70
                              648.38   659.87   681.80   787.40   802.38
                              805.41   819.08   918.32  1123.21  1414.07
                             1484.79  1695.61  2501.63  3802.76  3824.64

 Zero-point correction=                           0.059389 (Hartree/Particle)
 Thermal correction to Energy=                    0.092063
 Thermal correction to Enthalpy=                  0.093008
 Thermal correction to Gibbs Free Energy=        -0.008070
 Sum of electronic and zero-point Energies=          -5982.809322
 Sum of electronic and thermal Energies=             -5982.776648
 Sum of electronic and thermal Enthalpies=           -5982.775703
 Sum of electronic and thermal Free Energies=        -5982.876781

                     E (Thermal)             CV                S
                      KCal/Mol        Cal/Mol-Kelvin    Cal/Mol-Kelvin
 Total                   57.771            105.974            212.735
 Electronic               0.000              0.000              0.000
 Translational            0.889              2.981             46.696
 Rotational               0.889              2.981             38.304
 Vibrational             55.993            100.012            127.736
 Vibration     1          0.593              1.985              6.296
 Vibration     2          0.594              1.984              5.811
 Vibration     3          0.594              1.982              5.354
 Vibration     4          0.595              1.980              5.128
 Vibration     5          0.596              1.975              4.562
 Vibration     6          0.598              1.969              4.183
 Vibration     7          0.598              1.968              4.131
 Vibration     8          0.600              1.963              3.908
 Vibration     9          0.602              1.956              3.658
 Vibration    10          0.602              1.954              3.591
 Vibration    11          0.604              1.949              3.448
 Vibration    12          0.606              1.941              3.270
 Vibration    13          0.607              1.940              3.243
 Vibration    14          0.610              1.928              3.024
 Vibration    15          0.611              1.926              2.989
 Vibration    16          0.612              1.923              2.948
 Vibration    17          0.615              1.914              2.814
 Vibration    18          0.615              1.912              2.788
 Vibration    19          0.616              1.909              2.752
 Vibration    20          0.617              1.905              2.696
 Vibration    21          0.622              1.890              2.536
 Vibration    22          0.624              1.885              2.490
 Vibration    23          0.624              1.884              2.478
 Vibration    24          0.631              1.862              2.288
 Vibration    25          0.634              1.853              2.223
 Vibration    26          0.637              1.843              2.156
 Vibration    27          0.642              1.828              2.056
 Vibration    28          0.650              1.803              1.918
 Vibration    29          0.657              1.780              1.807
 Vibration    30          0.669              1.744              1.655
 Vibration    31          0.670              1.741              1.644
 Vibration    32          0.675              1.725              1.584
 Vibration    33          0.677              1.720              1.566
 Vibration    34          0.684              1.700              1.499
 Vibration    35          0.688              1.686              1.453
 Vibration    36          0.694              1.670              1.406
 Vibration    37          0.697              1.660              1.378
 Vibration    38          0.703              1.644              1.333
 Vibration    39          0.709              1.626              1.287
 Vibration    40          0.710              1.622              1.276
 Vibration    41          0.716              1.605              1.234
 Vibration    42          0.728              1.574              1.162
 Vibration    43          0.733              1.557              1.128
 Vibration    44          0.736              1.549              1.111
 Vibration    45          0.765              1.472              0.966
 Vibration    46          0.782              1.429              0.895
 Vibration    47          0.787              1.416              0.875
 Vibration    48          0.793              1.400              0.852
 Vibration    49          0.798              1.387              0.833
 Vibration    50          0.805              1.371              0.810
 Vibration    51          0.809              1.359              0.794
 Vibration    52          0.817              1.342              0.770
 Vibration    53          0.831              1.308              0.727
 Vibration    54          0.902              1.146              0.550
 Vibration    55          0.913              1.123              0.528
 Vibration    56          0.915              1.118              0.524
 Vibration    57          0.925              1.098              0.506

 Optimization completed.
    -- Stationary point found.
 Normal termination of Gaussian 16 at Fri Dec  9 14:23:02 2022.
