 Gaussian 16, Revision C.01,
 Gaussian 16:  ES64L-G16RevC.01  3-Jul-2019

 ---------------------------------------
 # opt freq b3lyp/gen nosymm pseudo=read
 ---------------------------------------

 -------------------
 Title Card Required
 -------------------
 Symbolic Z-matrix:
 Charge =  0 Multiplicity = 1

 SCF Done:  E(RB3LYP) =  -5981.67979237     A.U. after   41 cycles
 SCF Done:  E(RB3LYP) =  -5981.69268768     A.U. after   24 cycles
 SCF Done:  E(RB3LYP) =  -5981.70004866     A.U. after   23 cycles
 SCF Done:  E(RB3LYP) =  -5981.70826961     A.U. after   23 cycles
 SCF Done:  E(RB3LYP) =  -5981.71310469     A.U. after   23 cycles
 SCF Done:  E(RB3LYP) =  -5981.71872615     A.U. after   21 cycles
 SCF Done:  E(RB3LYP) =  -5981.72806903     A.U. after   22 cycles
 SCF Done:  E(RB3LYP) =  -5981.73260403     A.U. after   20 cycles
 SCF Done:  E(RB3LYP) =  -5981.73541793     A.U. after   20 cycles
 SCF Done:  E(RB3LYP) =  -5981.73766869     A.U. after   20 cycles
 SCF Done:  E(RB3LYP) =  -5981.74037736     A.U. after   18 cycles
 SCF Done:  E(RB3LYP) =  -5981.74041132     A.U. after   17 cycles
 SCF Done:  E(RB3LYP) =  -5981.74042096     A.U. after   17 cycles
 SCF Done:  E(RB3LYP) =  -5981.74042433     A.U. after   16 cycles
 SCF Done:  E(RB3LYP) =  -5981.74042598     A.U. after   14 cycles
 SCF Done:  E(RB3LYP) =  -5981.74042669     A.U. after   13 cycles
 SCF Done:  E(RB3LYP) =  -5981.74042695     A.U. after   13 cycles
 SCF Done:  E(RB3LYP) =  -5981.74042707     A.U. after   13 cycles
 SCF Done:  E(RB3LYP) =  -5981.74042711     A.U. after   12 cycles
 Optimization completed.
    -- Stationary point found.
 Normal termination of Gaussian 16 at Fri Dec  9 13:50:45 2022.

 ------------------------------------------------------------------
 #N Geom=AllCheck Guess=TCheck SCRF=Check GenChk RB3LYP/ChkBas Freq
 ------------------------------------------------------------------

 Structure from the checkpoint file:  "/home/chesagar/scratch/Gau-159473.chk"
 -------------------
 Title Card Required
 -------------------
 Charge =  0 Multiplicity = 1

                          Input orientation:
 ---------------------------------------------------------------------
 Center     Atomic      Atomic             Coordinates (Angstroms)
 Number     Number       Type             X           Y           Z
 ---------------------------------------------------------------------
      1         42           0        0.105190    1.317563   11.853888
      2         16           0        0.819521    3.341321   12.557035
      3         16           0       -2.150610    1.165717   12.502234
      4         16           0       -0.322312    1.225865    9.487573
      5         16           0        1.946136   -0.010169   11.913110
      6         42           0       -2.276211    2.230669   10.449355
      7         16           0       -3.531421    1.961472    8.444830
      8         16           0       -1.961989    4.441799   11.059187
      9         42           0        0.161742    3.407326   10.246879
     10         16           0       -0.260187    4.154471    7.771130
     11         16           0        2.380065    3.535841    9.390411
     12         42           0        3.088049    1.566766   10.465163
     13         42           0       -2.415282    3.760089    7.386662
     14         16           0        4.745377    2.150305   11.644763
     15         16           0        3.818307    0.360417    8.887372
     16         16           0       -3.688330    5.570775    8.034939
     17         16           0       -2.806635    3.574326    5.318968
     18         42           0       -4.167531    4.092357    9.714853
     19         16           0       -6.398927    3.385887    9.636412
     20          1           0       -6.358393    2.325177    8.800226
     21         16           0       -4.863100    5.446653   11.508888
     22          1           0       -6.205541    5.264981   11.525801
 ---------------------------------------------------------------------

 SCF Done:  E(RB3LYP) =  -5981.74042711     A.U. after    2 cycles

 Alpha  occ. eigenvalues --  -88.93370 -88.91351 -88.91182 -88.91060 -88.90731
 Alpha  occ. eigenvalues --  -88.90221 -88.89660 -88.89652 -88.89265 -88.89011
 Alpha  occ. eigenvalues --  -88.88850 -88.88807 -88.87965 -88.87780  -8.00906
 Alpha  occ. eigenvalues --   -7.98980  -7.98926  -7.98553  -7.98529  -7.98119
 Alpha  occ. eigenvalues --   -7.97570  -7.97492  -7.97190  -7.96784  -7.96728
 Alpha  occ. eigenvalues --   -7.96643  -7.95648  -7.95500  -5.96946  -5.96869
 Alpha  occ. eigenvalues --   -5.96781  -5.94995  -5.94949  -5.94946  -5.94875
 Alpha  occ. eigenvalues --   -5.94860  -5.94811  -5.94639  -5.94568  -5.94553
 Alpha  occ. eigenvalues --   -5.94470  -5.94400  -5.94350  -5.94161  -5.94102
 Alpha  occ. eigenvalues --   -5.93910  -5.93631  -5.93553  -5.93544  -5.93444
 Alpha  occ. eigenvalues --   -5.93323  -5.93307  -5.93207  -5.93194  -5.92964
 Alpha  occ. eigenvalues --   -5.92919  -5.92759  -5.92748  -5.92729  -5.92695
 Alpha  occ. eigenvalues --   -5.92580  -5.92543  -5.92513  -5.92459  -5.91901
 Alpha  occ. eigenvalues --   -5.91765  -5.91480  -5.91427  -5.91345  -5.91248
 Alpha  occ. eigenvalues --   -2.58399  -2.57755  -2.57294  -2.56772  -2.56199
 Alpha  occ. eigenvalues --   -2.54551  -1.61427  -1.60894  -1.60842  -1.60452
 Alpha  occ. eigenvalues --   -1.60283  -1.60114  -1.59848  -1.59756  -1.59281
 Alpha  occ. eigenvalues --   -1.59235  -1.59104  -1.58384  -1.58346  -1.58114
 Alpha  occ. eigenvalues --   -1.57708  -1.57256  -1.56459  -1.55663  -0.76917
 Alpha  occ. eigenvalues --   -0.75248  -0.74458  -0.73940  -0.73316  -0.73001
 Alpha  occ. eigenvalues --   -0.72757  -0.72401  -0.72136  -0.71873  -0.71212
 Alpha  occ. eigenvalues --   -0.70668  -0.70280  -0.69931  -0.45365  -0.44116
 Alpha  occ. eigenvalues --   -0.43978  -0.43169  -0.42390  -0.42029  -0.41443
 Alpha  occ. eigenvalues --   -0.41186  -0.40506  -0.40001  -0.39509  -0.39250
 Alpha  occ. eigenvalues --   -0.38908  -0.38678  -0.38199  -0.38113  -0.37953
 Alpha  occ. eigenvalues --   -0.37685  -0.37317  -0.37158  -0.36834  -0.36722
 Alpha  occ. eigenvalues --   -0.36232  -0.35796  -0.35357  -0.34974  -0.34294
 Alpha  occ. eigenvalues --   -0.34205  -0.33815  -0.33399  -0.32496  -0.31819
 Alpha  occ. eigenvalues --   -0.31501  -0.31373  -0.31073  -0.30597  -0.30181
 Alpha  occ. eigenvalues --   -0.29667  -0.29477  -0.29205  -0.28376  -0.28254
 Alpha  occ. eigenvalues --   -0.27076  -0.26717  -0.26018  -0.25619  -0.24641
 Alpha virt. eigenvalues --   -0.18020  -0.17194  -0.17012  -0.16168  -0.15804
 Alpha virt. eigenvalues --   -0.14874  -0.14703  -0.14117  -0.13849  -0.13713
 Alpha virt. eigenvalues --   -0.13312  -0.13069  -0.12231  -0.11286  -0.10993

 Mulliken charges:
               1
     1  Mo  -0.063504
     2  S    0.154010
     3  S   -0.049584
     4  S    0.318368
     5  S   -0.068388
     6  Mo   0.010823
     7  S    0.001760
     8  S    0.207618
     9  Mo  -0.420809
    10  S   -0.097667
    11  S    0.027812
    12  Mo   0.242928
    13  Mo   0.341596
    14  S   -0.100804
    15  S   -0.105986
    16  S    0.024902
    17  S   -0.161963
    18  Mo  -0.335493
    19  S   -0.082204
    20  H    0.082062
    21  S   -0.007865
    22  H    0.082387
 Sum of Mulliken charges =  -0.00000

 Dipole moment (field-independent basis, Debye):
    X=             -0.0001    Y=             -2.3356    Z=              1.3356  Tot=              2.6906
 Quadrupole moment (field-independent basis, Debye-Ang):
   XX=           -329.8589   YY=           -334.4631   ZZ=           -298.0709
   XY=              8.2884   XZ=              2.2206   YZ=            -20.3956

  Exact polarizability:     820.688    -142.668     414.246      60.075     -33.101     524.602
 Approx polarizability:    2199.998    -185.747    1367.225      72.407     -50.284    1672.115

                      1                      2                      3
                      A                      A                      A
 Frequencies --     15.8896                31.6153                43.3557
 Red. masses --     32.7497                17.3762                23.1340
 Frc consts  --      0.0049                 0.0102                 0.0256
 IR Inten    --      0.0593                 0.0813                 0.1660

                      4                      5                      6
                      A                      A                      A
 Frequencies --     48.5966                59.5690                66.7903
 Red. masses --     37.0189                29.9592                40.6302
 Frc consts  --      0.0515                 0.0626                 0.1068
 IR Inten    --      0.6522                 0.1282                 0.2277

                      7                      8                      9
                      A                      A                      A
 Frequencies --     77.1770                82.7090                89.2253
 Red. masses --     27.6626                34.5348                32.8046
 Frc consts  --      0.0971                 0.1392                 0.1539
 IR Inten    --      0.9935                 0.8074                 1.3014

                     10                     11                     12
                      A                      A                      A
 Frequencies --     96.5599               103.2119               108.6271
 Red. masses --     36.1943                28.8316                39.4026
 Frc consts  --      0.1988                 0.1810                 0.2739
 IR Inten    --      0.4053                 0.3986                 0.2257

                     13                     14                     15
                      A                      A                      A
 Frequencies --    112.7410               123.0802               137.0016
 Red. masses --     38.6632                34.3734                30.4168
 Frc consts  --      0.2895                 0.3068                 0.3364
 IR Inten    --      1.5196                 0.7540                 1.2325

                     16                     17                     18
                      A                      A                      A
 Frequencies --    146.5857               146.9489               150.9145
 Red. masses --     38.5187                31.9111                40.6762
 Frc consts  --      0.4876                 0.4060                 0.5458
 IR Inten    --      0.2210                 0.6195                 3.7914

                     19                     20                     21
                      A                      A                      A
 Frequencies --    154.9320               160.3779               166.4445
 Red. masses --     32.1952                38.8121                26.5999
 Frc consts  --      0.4553                 0.5882                 0.4342
 IR Inten    --      3.6295                 2.3785                 0.4770

                     22                     23                     24
                      A                      A                      A
 Frequencies --    169.9009               175.8858               178.1981
 Red. masses --     32.2901                31.6036                38.1484
 Frc consts  --      0.5492                 0.5760                 0.7137
 IR Inten    --      1.0477                 0.4689                 2.2380

                     25                     26                     27
                      A                      A                      A
 Frequencies --    190.9076               201.8527               206.8878
 Red. masses --     41.1892                35.3898                23.0826
 Frc consts  --      0.8845                 0.8496                 0.5821
 IR Inten    --      2.1023                 1.4527                 3.6829

                     28                     29                     30
                      A                      A                      A
 Frequencies --    215.4982               228.1167               232.6416
 Red. masses --     27.6649                37.6485                25.7608
 Frc consts  --      0.7569                 1.1543                 0.8215
 IR Inten    --      3.0765                 0.2866                 8.2118

                     31                     32                     33
                      A                      A                      A
 Frequencies --    239.4089               255.9823               272.7083
 Red. masses --     35.2741                40.9641                35.8674
 Frc consts  --      1.1912                 1.5815                 1.5716
 IR Inten    --      6.4817                 0.9202                14.9976

                     34                     35                     36
                      A                      A                      A
 Frequencies --    280.8280               282.1855               320.0838
 Red. masses --     27.6619                37.1654                35.0701
 Frc consts  --      1.2853                 1.7436                 2.1170
 IR Inten    --      5.5183                 1.1707                50.9867

                     37                     38                     39
                      A                      A                      A
 Frequencies --    322.2667               329.5816               338.2944
 Red. masses --     36.2588                36.2734                 6.2282
 Frc consts  --      2.2187                 2.3215                 0.4200
 IR Inten    --      7.1391                10.2045                11.1519

                     40                     41                     42
                      A                      A                      A
 Frequencies --    347.7274               353.9942               359.2299
 Red. masses --     14.9239                29.5008                28.1053
 Frc consts  --      1.0632                 2.1781                 2.1369
 IR Inten    --      4.6651                 7.8608                34.2092

                     43                     44                     45
                      A                      A                      A
 Frequencies --    367.4554               376.1743               391.7512
 Red. masses --     29.1538                 1.6855                 4.7174
 Frc consts  --      2.3193                 0.1405                 0.4266
 IR Inten    --     18.1895                12.2814                10.5945

                     46                     47                     48
                      A                      A                      A
 Frequencies --    409.6733               414.7588               424.2907
 Red. masses --     15.9337                15.9405                 1.3404
 Frc consts  --      1.5756                 1.6156                 0.1422
 IR Inten    --     16.5393                26.4954                 2.5005

                     49                     50                     51
                      A                      A                      A
 Frequencies --    433.7615               436.6204               443.5927
 Red. masses --     22.6258                22.6359                30.4113
 Frc consts  --      2.5082                 2.5425                 3.5258
 IR Inten    --     11.8019                24.4872                 3.7803

                     52                     53                     54
                      A                      A                      A
 Frequencies --    448.3042               457.0768               548.9042
 Red. masses --     15.8003                38.3825                37.0481
 Frc consts  --      1.8709                 4.7246                 6.5767
 IR Inten    --     12.7897                 6.8509                98.8526

                     55                     56                     57
                      A                      A                      A
 Frequencies --    555.4128               562.3991               712.8228
 Red. masses --     40.5266                38.8535                 1.0493
 Frc consts  --      7.3658                 7.2405                 0.3141
 IR Inten    --     48.7764               104.9714                14.0971

                     58                     59                     60
                      A                      A                      A
 Frequencies --    748.7586              2625.2682              2655.2341
 Red. masses --      1.0533                 1.0383                 1.0385
 Frc consts  --      0.3479                 4.2162                 4.3137
 IR Inten    --      4.1491                 3.2448                 2.5616

 - Thermochemistry -
 -------------------
 Temperature   298.150 Kelvin.  Pressure   1.00000 Atm.
 Atom     1 has atomic number 42 and mass  97.90550

 Molecular mass:  1037.05766 amu.
 Principal axes and moments of inertia in atomic units:
                           1         2         3
     Eigenvalues --  ******************************
           X            0.90560  -0.33789   0.25634
           Y           -0.33251  -0.19042   0.92368
           Z            0.26329   0.92172   0.28479
 This molecule is an asymmetric top.
 Rotational symmetry number  1.
 Warning -- assumption of classical behavior for rotation
           may cause significant error
 Rotational temperatures (Kelvin)      0.00668     0.00237     0.00207
 Rotational constants (GHZ):           0.13923     0.04948     0.04308
 Zero-point vibrational energy     123435.4 (Joules/Mol)
                                   29.50178 (Kcal/Mol)
 Warning -- explicit consideration of  56 degrees of freedom as
           vibrations may cause significant error
 Vibrational temperatures:     22.86    45.49    62.38    69.92    85.71
          (Kelvin)             96.10   111.04   119.00   128.38   138.93
                              148.50   156.29   162.21   177.09   197.11
                              210.90   211.43   217.13   222.91   230.75
                              239.48   244.45   253.06   256.39   274.67
                              290.42   297.67   310.05   328.21   334.72
                              344.46   368.30   392.37   404.05   406.00
                              460.53   463.67   474.19   486.73   500.30
                              509.32   516.85   528.69   541.23   563.64
                              589.43   596.75   610.46   624.09   628.20
                              638.23   645.01   657.63   789.75   799.12
                              809.17  1025.59  1077.30  3777.18  3820.29

 Zero-point correction=                           0.047014 (Hartree/Particle)
 Thermal correction to Energy=                    0.079282
 Thermal correction to Enthalpy=                  0.080227
 Thermal correction to Gibbs Free Energy=        -0.020016
 Sum of electronic and zero-point Energies=          -5981.693413
 Sum of electronic and thermal Energies=             -5981.661145
 Sum of electronic and thermal Enthalpies=           -5981.660201
 Sum of electronic and thermal Free Energies=        -5981.760443

                     E (Thermal)             CV                S
                      KCal/Mol        Cal/Mol-Kelvin    Cal/Mol-Kelvin
 Total                   49.750            103.783            210.978
 Electronic               0.000              0.000              0.000
 Translational            0.889              2.981             46.690
 Rotational               0.889              2.981             38.224
 Vibrational             47.973             97.822            126.064
 Vibration     1          0.593              1.986              7.091
 Vibration     2          0.594              1.983              5.725
 Vibration     3          0.595              1.980              5.100
 Vibration     4          0.595              1.978              4.874
 Vibration     5          0.597              1.974              4.471
 Vibration     6          0.598              1.970              4.246
 Vibration     7          0.599              1.964              3.961
 Vibration     8          0.600              1.961              3.826
 Vibration     9          0.602              1.957              3.677
 Vibration    10          0.603              1.952              3.523
 Vibration    11          0.605              1.947              3.393
 Vibration    12          0.606              1.942              3.293
 Vibration    13          0.607              1.939              3.221
 Vibration    14          0.610              1.930              3.051
 Vibration    15          0.614              1.916              2.845
 Vibration    16          0.617              1.906              2.716
 Vibration    17          0.617              1.906              2.711
 Vibration    18          0.618              1.902              2.661
 Vibration    19          0.620              1.897              2.611
 Vibration    20          0.622              1.891              2.545
 Vibration    21          0.624              1.884              2.475
 Vibration    22          0.625              1.880              2.437
 Vibration    23          0.628              1.872              2.372
 Vibration    24          0.629              1.869              2.347
 Vibration    25          0.634              1.852              2.219
 Vibration    26          0.639              1.837              2.116
 Vibration    27          0.641              1.830              2.071
 Vibration    28          0.645              1.817              1.997
 Vibration    29          0.651              1.798              1.894
 Vibration    30          0.653              1.791              1.858
 Vibration    31          0.657              1.780              1.807
 Vibration    32          0.666              1.753              1.689
 Vibration    33          0.676              1.724              1.579
 Vibration    34          0.681              1.709              1.529
 Vibration    35          0.681              1.707              1.520
 Vibration    36          0.706              1.635              1.310
 Vibration    37          0.707              1.631              1.299
 Vibration    38          0.712              1.616              1.262
 Vibration    39          0.719              1.599              1.220
 Vibration    40          0.725              1.580              1.176
 Vibration    41          0.730              1.567              1.148
 Vibration    42          0.734              1.556              1.125
 Vibration    43          0.740              1.539              1.090
 Vibration    44          0.747              1.521              1.055
 Vibration    45          0.759              1.488              0.993
 Vibration    46          0.774              1.449              0.928
 Vibration    47          0.778              1.438              0.910
 Vibration    48          0.786              1.417              0.878
 Vibration    49          0.795              1.397              0.846
 Vibration    50          0.797              1.390              0.837
 Vibration    51          0.803              1.375              0.815
 Vibration    52          0.807              1.365              0.801
 Vibration    53          0.815              1.345              0.775
 Vibration    54          0.904              1.142              0.546
 Vibration    55          0.911              1.128              0.533
 Vibration    56          0.918              1.113              0.519

                           ! Non-Optimized Parameters !
 Normal termination of Gaussian 16 at Fri Dec  9 13:54:33 2022.
