 Gaussian 16, Revision C.01,
 Gaussian 16:  ES64L-G16RevC.01  3-Jul-2019

 -----------------------------------------------------------
 # opt=(calcfc,ts,noeigen) freq b3lyp/gen nosymm pseudo=read
 -----------------------------------------------------------

 -------------------
 Title Card Required
 -------------------
 Symbolic Z-matrix:
 Charge =  0 Multiplicity = 1

 SCF Done:  E(RB3LYP) =  -5981.62892874     A.U. after   33 cycles
 SCF Done:  E(RB3LYP) =  -5981.65257116     A.U. after   21 cycles
 SCF Done:  E(RB3LYP) =  -5981.67426868     A.U. after   20 cycles
 SCF Done:  E(RB3LYP) =  -5981.68636399     A.U. after   20 cycles
 SCF Done:  E(RB3LYP) =  -5981.68721003     A.U. after   20 cycles
 SCF Done:  E(RB3LYP) =  -5981.68805354     A.U. after   20 cycles
 SCF Done:  E(RB3LYP) =  -5981.68861568     A.U. after   20 cycles
 SCF Done:  E(RB3LYP) =  -5981.68935538     A.U. after   20 cycles
 SCF Done:  E(RB3LYP) =  -5981.68943738     A.U. after   20 cycles
 SCF Done:  E(RB3LYP) =  -5981.69048538     A.U. after   20 cycles
 SCF Done:  E(RB3LYP) =  -5981.68973347     A.U. after   20 cycles
 SCF Done:  E(RB3LYP) =  -5981.68960373     A.U. after   21 cycles
 SCF Done:  E(RB3LYP) =  -5981.69108095     A.U. after   20 cycles
 SCF Done:  E(RB3LYP) =  -5981.69127587     A.U. after   19 cycles
 SCF Done:  E(RB3LYP) =  -5981.69131456     A.U. after   17 cycles
 SCF Done:  E(RB3LYP) =  -5981.69132786     A.U. after   15 cycles
 SCF Done:  E(RB3LYP) =  -5981.69133316     A.U. after   15 cycles
 SCF Done:  E(RB3LYP) =  -5981.69133418     A.U. after   15 cycles
 SCF Done:  E(RB3LYP) =  -5981.69133414     A.U. after   13 cycles
 Optimization completed.
    -- Stationary point found.
 Normal termination of Gaussian 16 at Fri Dec  9 13:58:42 2022.

 ------------------------------------------------------------------
 #N Geom=AllCheck Guess=TCheck SCRF=Check GenChk RB3LYP/ChkBas Freq
 ------------------------------------------------------------------

 Structure from the checkpoint file:  "/home/chesagar/scratch/Gau-38815.chk"
 -------------------
 Title Card Required
 -------------------
 Charge =  0 Multiplicity = 1

                          Input orientation:
 ---------------------------------------------------------------------
 Center     Atomic      Atomic             Coordinates (Angstroms)
 Number     Number       Type             X           Y           Z
 ---------------------------------------------------------------------
      1         42           0        0.211907    1.315452   11.931027
      2         16           0        0.954135    3.343705   12.620799
      3         16           0       -2.053583    1.205707   12.620211
      4         16           0       -0.222993    1.247717    9.575443
      5         16           0        2.039280   -0.038265   11.942395
      6         42           0       -2.157678    2.255064   10.576531
      7         16           0       -3.330119    1.997869    8.520936
      8         16           0       -1.805451    4.434324   11.045723
      9         42           0        0.327958    3.409885   10.319601
     10         16           0       -0.279150    4.271432    7.880859
     11         16           0        2.474070    3.530436    9.387828
     12         42           0        3.112969    1.466084   10.379299
     13         42           0       -2.431757    3.863258    7.457189
     14         16           0        4.909749    1.936330   11.390046
     15         16           0        3.602595    0.238299    8.728064
     16         16           0       -3.828677    5.570827    8.126276
     17         16           0       -2.725224    3.675212    5.379801
     18         42           0       -4.335277    4.076595    9.863669
     19         16           0       -6.305562    3.192328    9.627949
     20          1           0       -7.074996    4.177910   10.919970
     21         16           0       -4.970810    5.327439   11.531666
     22          1           0       -6.688100    4.772784   11.461214
 ---------------------------------------------------------------------

 SCF Done:  E(RB3LYP) =  -5981.69133414     A.U. after    3 cycles

 Alpha  occ. eigenvalues --  -88.93542 -88.91910 -88.91825 -88.91318 -88.90877
 Alpha  occ. eigenvalues --  -88.90323 -88.90036 -88.89605 -88.89425 -88.89330
 Alpha  occ. eigenvalues --  -88.88921 -88.88784 -88.88254 -88.88044  -8.01080
 Alpha  occ. eigenvalues --   -7.99567  -7.99354  -7.99071  -7.98664  -7.98211
 Alpha  occ. eigenvalues --   -7.97948  -7.97525  -7.97276  -7.97197  -7.96720
 Alpha  occ. eigenvalues --   -7.96553  -7.96009  -7.95781  -5.97126  -5.97022
 Alpha  occ. eigenvalues --   -5.96969  -5.95577  -5.95545  -5.95451  -5.95431
 Alpha  occ. eigenvalues --   -5.95316  -5.95203  -5.95088  -5.95010  -5.94954
 Alpha  occ. eigenvalues --   -5.94676  -5.94616  -5.94538  -5.94257  -5.94192
 Alpha  occ. eigenvalues --   -5.94013  -5.94003  -5.93928  -5.93698  -5.93553
 Alpha  occ. eigenvalues --   -5.93522  -5.93317  -5.93294  -5.93276  -5.93234
 Alpha  occ. eigenvalues --   -5.93160  -5.93112  -5.92952  -5.92817  -5.92672
 Alpha  occ. eigenvalues --   -5.92648  -5.92502  -5.92500  -5.92359  -5.92114
 Alpha  occ. eigenvalues --   -5.91882  -5.91877  -5.91864  -5.91733  -5.91572
 Alpha  occ. eigenvalues --   -2.58645  -2.57740  -2.57398  -2.57313  -2.56482
 Alpha  occ. eigenvalues --   -2.54407  -1.61407  -1.61190  -1.61033  -1.60544
 Alpha  occ. eigenvalues --   -1.60446  -1.60342  -1.60206  -1.59826  -1.59734
 Alpha  occ. eigenvalues --   -1.59364  -1.59226  -1.59031  -1.58781  -1.58089
 Alpha  occ. eigenvalues --   -1.57577  -1.57003  -1.56657  -1.56162  -0.77156
 Alpha  occ. eigenvalues --   -0.75320  -0.74704  -0.74001  -0.73409  -0.72998
 Alpha  occ. eigenvalues --   -0.72162  -0.71969  -0.71519  -0.71247  -0.70689
 Alpha  occ. eigenvalues --   -0.70602  -0.70316  -0.69032  -0.47831  -0.44195
 Alpha  occ. eigenvalues --   -0.43878  -0.43505  -0.42388  -0.42075  -0.41241
 Alpha  occ. eigenvalues --   -0.41121  -0.40824  -0.40133  -0.39317  -0.39076
 Alpha  occ. eigenvalues --   -0.38856  -0.38520  -0.38277  -0.38061  -0.37811
 Alpha  occ. eigenvalues --   -0.37665  -0.37305  -0.36937  -0.36785  -0.36707
 Alpha  occ. eigenvalues --   -0.35865  -0.35523  -0.35254  -0.34849  -0.34575
 Alpha  occ. eigenvalues --   -0.34373  -0.34256  -0.33173  -0.32599  -0.32429
 Alpha  occ. eigenvalues --   -0.32018  -0.31592  -0.31266  -0.30671  -0.30230
 Alpha  occ. eigenvalues --   -0.29743  -0.29733  -0.28724  -0.28381  -0.27700
 Alpha  occ. eigenvalues --   -0.27502  -0.27101  -0.26293  -0.25783  -0.25408
 Alpha virt. eigenvalues --   -0.18169  -0.17335  -0.17046  -0.16362  -0.15915
 Alpha virt. eigenvalues --   -0.15624  -0.15009  -0.14442  -0.13968  -0.13892
 Alpha virt. eigenvalues --   -0.13347  -0.13011  -0.12359  -0.11477  -0.11079

 Mulliken charges:
               1
     1  Mo  -0.067196
     2  S    0.141918
     3  S   -0.045951
     4  S    0.307569
     5  S   -0.060628
     6  Mo  -0.062263
     7  S    0.009346
     8  S    0.201518
     9  Mo  -0.407958
    10  S   -0.091833
    11  S    0.028692
    12  Mo   0.235297
    13  Mo   0.347688
    14  S   -0.096542
    15  S   -0.100663
    16  S    0.004621
    17  S   -0.142779
    18  Mo  -0.039194
    19  S   -0.098165
    20  H    0.004068
    21  S   -0.075344
    22  H    0.007800
 Sum of Mulliken charges =  -0.00000

 Dipole moment (field-independent basis, Debye):
    X=              1.4958    Y=             -2.2217    Z=              1.5765  Tot=              3.1079
 Quadrupole moment (field-independent basis, Debye-Ang):
   XX=           -338.1885   YY=           -334.7491   ZZ=           -290.9935
   XY=             11.2503   XZ=             16.2777   YZ=            -19.1232

  Exact polarizability:     848.762    -150.120     416.702      47.480     -34.207     522.800
 Approx polarizability:    2340.985    -169.198    1406.709      43.764     -17.594    1694.743

 ******    1 imaginary frequencies (negative Signs) ******

                      1                      2                      3
                      A                      A                      A
 Frequencies --   -829.3465                20.2802                33.6041
 Red. masses --      1.2493                31.8759                25.4771
 Frc consts  --      0.5063                 0.0077                 0.0170
 IR Inten    --    233.8807                 0.0531                 0.1361

                      4                      5                      6
                      A                      A                      A
 Frequencies --     50.8549                55.1951                62.9472
 Red. masses --     27.9952                35.5319                28.3155
 Frc consts  --      0.0427                 0.0638                 0.0661
 IR Inten    --      0.0986                 0.1628                 0.1630

                      7                      8                      9
                      A                      A                      A
 Frequencies --     68.0870                77.8544                83.2936
 Red. masses --     37.2576                36.7933                28.4047
 Frc consts  --      0.1018                 0.1314                 0.1161
 IR Inten    --      0.0930                 0.7774                 0.5129

                     10                     11                     12
                      A                      A                      A
 Frequencies --     95.5940                97.5729               100.7830
 Red. masses --     40.4783                30.5219                26.2989
 Frc consts  --      0.2179                 0.1712                 0.1574
 IR Inten    --      0.6108                 1.4226                 0.3419

                     13                     14                     15
                      A                      A                      A
 Frequencies --    107.8633               111.2578               122.7780
 Red. masses --     32.7796                38.9527                30.3675
 Frc consts  --      0.2247                 0.2841                 0.2697
 IR Inten    --      0.7866                 0.7782                 0.1545

                     16                     17                     18
                      A                      A                      A
 Frequencies --    133.0029               140.1286               144.6949
 Red. masses --     27.5602                40.8005                39.6428
 Frc consts  --      0.2872                 0.4720                 0.4890
 IR Inten    --      0.0547                 2.2652                 0.3477

                     19                     20                     21
                      A                      A                      A
 Frequencies --    148.4122               151.6017               155.1740
 Red. masses --     38.5131                36.3736                32.2251
 Frc consts  --      0.4998                 0.4925                 0.4572
 IR Inten    --      1.4591                 1.0568                 0.3773

                     22                     23                     24
                      A                      A                      A
 Frequencies --    159.3776               164.6655               174.7738
 Red. masses --     38.2816                28.4111                37.4243
 Frc consts  --      0.5729                 0.4539                 0.6735
 IR Inten    --      1.2633                 2.2142                 0.5245

                     25                     26                     27
                      A                      A                      A
 Frequencies --    180.3560               185.1913               198.4786
 Red. masses --     37.3022                35.4089                38.5290
 Frc consts  --      0.7149                 0.7155                 0.8943
 IR Inten    --      0.4374                 3.5874                 0.4301

                     28                     29                     30
                      A                      A                      A
 Frequencies --    204.8376               219.6290               226.7609
 Red. masses --     44.0824                32.9494                45.0744
 Frc consts  --      1.0898                 0.9364                 1.3656
 IR Inten    --      2.4122                 7.4886                 0.1975

                     31                     32                     33
                      A                      A                      A
 Frequencies --    234.7035               253.5802               273.6998
 Red. masses --     34.8881                42.8402                37.2244
 Frc consts  --      1.1323                 1.6231                 1.6430
 IR Inten    --      2.4335                 0.7371                 4.0212

                     34                     35                     36
                      A                      A                      A
 Frequencies --    282.5022               286.2969               311.2588
 Red. masses --     35.6903                38.2210                31.0446
 Frc consts  --      1.6782                 1.8458                 1.7721
 IR Inten    --      8.3099                 0.8923                18.2657

                     37                     38                     39
                      A                      A                      A
 Frequencies --    312.7138               332.0829               347.7481
 Red. masses --     34.4322                38.7334                35.6746
 Frc consts  --      1.9839                 2.5167                 2.5418
 IR Inten    --     20.0785                 0.4560                 0.1587

                     40                     41                     42
                      A                      A                      A
 Frequencies --    357.3584               371.7306               378.2938
 Red. masses --     42.4109                33.4758                37.4260
 Frc consts  --      3.1911                 2.7254                 3.1556
 IR Inten    --      6.5044                 1.2731                15.0359

                     43                     44                     45
                      A                      A                      A
 Frequencies --    395.5537               409.7435               423.7917
 Red. masses --     10.2080                35.0134                31.3672
 Frc consts  --      0.9410                 3.4634                 3.3192
 IR Inten    --      1.2745                33.4693                10.2906

                     46                     47                     48
                      A                      A                      A
 Frequencies --    427.0444               429.3874               435.0220
 Red. masses --     24.7298                34.5959                26.9362
 Frc consts  --      2.6572                 3.7581                 3.0034
 IR Inten    --     52.6122                 4.2325                 7.4957

                     49                     50                     51
                      A                      A                      A
 Frequencies --    440.8420               441.6417               457.4769
 Red. masses --      1.2910                10.6773                31.5924
 Frc consts  --      0.1478                 1.2270                 3.8956
 IR Inten    --      2.1008                 3.8777                 8.0658

                     52                     53                     54
                      A                      A                      A
 Frequencies --    474.6284               525.6978               550.6196
 Red. masses --     34.5891                 7.1171                36.9948
 Frc consts  --      4.5909                 1.1588                 6.6084
 IR Inten    --     23.7611                86.2019                89.7721

                     55                     56                     57
                      A                      A                      A
 Frequencies --    557.5700               570.0292               891.1948
 Red. masses --     40.5473                37.9556                 1.0670
 Frc consts  --      7.4270                 7.2664                 0.4993
 IR Inten    --     52.0270                97.0929                38.9332

                     58                     59                     60
                      A                      A                      A
 Frequencies --   1007.2056              1052.6766              2115.1980
 Red. masses --      1.0109                 1.0100                 1.0157
 Frc consts  --      0.6042                 0.6594                 2.6776
 IR Inten    --      0.9683                 0.0773                23.5130

 - Thermochemistry -
 -------------------
 Temperature   298.150 Kelvin.  Pressure   1.00000 Atm.
 Atom     1 has atomic number 42 and mass  97.90550

 Molecular mass:  1037.05766 amu.
 Principal axes and moments of inertia in atomic units:
                           1         2         3
     Eigenvalues --  ******************************
           X            0.90874  -0.32228   0.26518
           Y           -0.34167  -0.20960   0.91615
           Z            0.23968   0.92315   0.30059
 This molecule is an asymmetric top.
 Rotational symmetry number  1.
 Warning -- assumption of classical behavior for rotation
           may cause significant error
 Rotational temperatures (Kelvin)      0.00664     0.00234     0.00202
 Rotational constants (GHZ):           0.13838     0.04876     0.04219
    1 imaginary frequencies ignored.
 Zero-point vibrational energy     113778.9 (Joules/Mol)
                                   27.19380 (Kcal/Mol)
 Warning -- explicit consideration of  55 degrees of freedom as
           vibrations may cause significant error
 Vibrational temperatures:     29.18    48.35    73.17    79.41    90.57
          (Kelvin)             97.96   112.02   119.84   137.54   140.39
                              145.00   155.19   160.08   176.65   191.36
                              201.61   208.18   213.53   218.12   223.26
                              229.31   236.92   251.46   259.49   266.45
                              285.57   294.72   316.00   326.26   337.69
                              364.85   393.79   406.46   411.92   447.83
                              449.93   477.79   500.33   514.16   534.84
                              544.28   569.11   589.53   609.74   614.42
                              617.79   625.90   634.27   635.42   658.21
                              682.88   756.36   792.22   802.22   820.14
                             1282.23  1449.14  1514.57  3043.30

 Zero-point correction=                           0.043336 (Hartree/Particle)
 Thermal correction to Energy=                    0.074751
 Thermal correction to Enthalpy=                  0.075696
 Thermal correction to Gibbs Free Energy=        -0.022672
 Sum of electronic and zero-point Energies=          -5981.647998
 Sum of electronic and thermal Energies=             -5981.616583
 Sum of electronic and thermal Enthalpies=           -5981.615639
 Sum of electronic and thermal Free Energies=        -5981.714006

                     E (Thermal)             CV                S
                      KCal/Mol        Cal/Mol-Kelvin    Cal/Mol-Kelvin
 Total                   46.907            101.026            207.032
 Electronic               0.000              0.000              0.000
 Translational            0.889              2.981             46.690
 Rotational               0.889              2.981             38.265
 Vibrational             45.130             95.065            122.076
 Vibration     1          0.593              1.986              6.607
 Vibration     2          0.594              1.983              5.604
 Vibration     3          0.595              1.977              4.784
 Vibration     4          0.596              1.975              4.622
 Vibration     5          0.597              1.972              4.363
 Vibration     6          0.598              1.969              4.208
 Vibration     7          0.599              1.964              3.944
 Vibration     8          0.600              1.961              3.812
 Vibration     9          0.603              1.952              3.542
 Vibration    10          0.603              1.951              3.502
 Vibration    11          0.604              1.948              3.439
 Vibration    12          0.606              1.943              3.307
 Vibration    13          0.607              1.940              3.247
 Vibration    14          0.610              1.930              3.056
 Vibration    15          0.613              1.920              2.902
 Vibration    16          0.615              1.913              2.802
 Vibration    17          0.616              1.908              2.741
 Vibration    18          0.618              1.904              2.692
 Vibration    19          0.619              1.901              2.652
 Vibration    20          0.620              1.897              2.608
 Vibration    21          0.621              1.892              2.557
 Vibration    22          0.623              1.886              2.496
 Vibration    23          0.627              1.873              2.384
 Vibration    24          0.629              1.866              2.325
 Vibration    25          0.631              1.860              2.275
 Vibration    26          0.637              1.842              2.147
 Vibration    27          0.640              1.833              2.089
 Vibration    28          0.647              1.811              1.962
 Vibration    29          0.650              1.800              1.904
 Vibration    30          0.655              1.788              1.843
 Vibration    31          0.665              1.757              1.706
 Vibration    32          0.676              1.722              1.573
 Vibration    33          0.682              1.706              1.518
 Vibration    34          0.684              1.699              1.496
 Vibration    35          0.700              1.652              1.356
 Vibration    36          0.701              1.649              1.348
 Vibration    37          0.714              1.611              1.250
 Vibration    38          0.725              1.580              1.176
 Vibration    39          0.733              1.560              1.134
 Vibration    40          0.743              1.530              1.073
 Vibration    41          0.749              1.516              1.046
 Vibration    42          0.762              1.480              0.979
 Vibration    43          0.774              1.449              0.928
 Vibration    44          0.786              1.418              0.879
 Vibration    45          0.789              1.411              0.868
 Vibration    46          0.791              1.406              0.861
 Vibration    47          0.796              1.394              0.842
 Vibration    48          0.801              1.381              0.824
 Vibration    49          0.801              1.379              0.821
 Vibration    50          0.816              1.344              0.773
 Vibration    51          0.831              1.306              0.725
 Vibration    52          0.881              1.193              0.597
 Vibration    53          0.906              1.138              0.543
 Vibration    54          0.913              1.123              0.529
 Vibration    55          0.926              1.096              0.504

 Optimization completed.
    -- Stationary point found.
 Normal termination of Gaussian 16 at Fri Dec  9 14:02:31 2022.
