 Gaussian 16, Revision C.01,
 Gaussian 16:  ES64L-G16RevC.01  3-Jul-2019

 ---------------------------------------
 # opt freq b3lyp/gen nosymm pseudo=read
 ---------------------------------------

 -------------------
 Title Card Required
 -------------------
 Symbolic Z-matrix:
 Charge =  0 Multiplicity = 1

 SCF Done:  E(RB3LYP) =  -5980.50732868     A.U. after   31 cycles
 SCF Done:  E(RB3LYP) =  -5980.52100495     A.U. after   20 cycles
 SCF Done:  E(RB3LYP) =  -5980.52510661     A.U. after   20 cycles
 SCF Done:  E(RB3LYP) =  -5980.52636009     A.U. after   19 cycles
 SCF Done:  E(RB3LYP) =  -5980.52771960     A.U. after   20 cycles
 SCF Done:  E(RB3LYP) =  -5980.52915246     A.U. after   20 cycles
 SCF Done:  E(RB3LYP) =  -5980.53031174     A.U. after   19 cycles
 SCF Done:  E(RB3LYP) =  -5980.53124317     A.U. after   20 cycles
 SCF Done:  E(RB3LYP) =  -5980.53159882     A.U. after   18 cycles
 SCF Done:  E(RB3LYP) =  -5980.53218102     A.U. after   19 cycles
 SCF Done:  E(RB3LYP) =  -5980.57575196     A.U. after   17 cycles
 SCF Done:  E(RB3LYP) =  -5980.57583725     A.U. after   18 cycles
 SCF Done:  E(RB3LYP) =  -5980.57590226     A.U. after   18 cycles
 SCF Done:  E(RB3LYP) =  -5980.57591874     A.U. after   15 cycles
 SCF Done:  E(RB3LYP) =  -5980.57593258     A.U. after   16 cycles
 SCF Done:  E(RB3LYP) =  -5980.57593894     A.U. after   15 cycles
 SCF Done:  E(RB3LYP) =  -5980.57594330     A.U. after   15 cycles
 SCF Done:  E(RB3LYP) =  -5980.57594464     A.U. after   14 cycles
 SCF Done:  E(RB3LYP) =  -5980.57594541     A.U. after   14 cycles
 Optimization completed.
    -- Stationary point found.
 Normal termination of Gaussian 16 at Fri Dec  9 14:14:33 2022.

 ------------------------------------------------------------------
 #N Geom=AllCheck Guess=TCheck SCRF=Check GenChk RB3LYP/ChkBas Freq
 ------------------------------------------------------------------

 Structure from the checkpoint file:  "/home/chesagar/scratch/Gau-95901.chk"
 -------------------
 Title Card Required
 -------------------
 Charge =  0 Multiplicity = 1

                          Input orientation:
 ---------------------------------------------------------------------
 Center     Atomic      Atomic             Coordinates (Angstroms)
 Number     Number       Type             X           Y           Z
 ---------------------------------------------------------------------
      1         42           0        0.233674    1.702167   12.165177
      2         16           0        1.195024    3.739285   12.485033
      3         16           0       -1.863821    1.857512   13.100503
      4         16           0       -0.332411    1.372746    9.893210
      5         16           0        1.943740    0.188825   12.224104
      6         42           0       -2.158820    2.627285   10.890719
      7         16           0       -3.106209    2.025629    8.536045
      8         16           0       -1.602689    4.757223   10.948553
      9         42           0        0.438355    3.580689   10.247786
     10         16           0       -0.254550    4.504189    7.954436
     11         16           0        2.539254    3.313565    9.227045
     12         42           0        3.017080    1.287420   10.347241
     13         42           0       -2.467889    4.132719    7.608674
     14         16           0        4.984458    1.583639   11.059100
     15         16           0        3.095148   -0.188737    8.834175
     16         16           0       -4.012327    5.617616    8.535927
     17         16           0       -2.888574    4.053198    5.549422
     18         42           0       -4.749676    3.535947    9.254500
     19         16           0       -6.628117    3.067749    8.409836
     20         16           0       -4.547770    3.132481   11.468600
 ---------------------------------------------------------------------

 SCF Done:  E(RB3LYP) =  -5980.57594541     A.U. after    1 cycles

 Alpha  occ. eigenvalues --  -88.93654 -88.92553 -88.91902 -88.91435 -88.90913
 Alpha  occ. eigenvalues --  -88.90368 -88.90308 -88.89915 -88.89684 -88.88827
 Alpha  occ. eigenvalues --  -88.88611 -88.88164 -88.88160 -88.87895  -8.01167
 Alpha  occ. eigenvalues --   -8.00144  -7.99542  -7.99208  -7.98680  -7.98287
 Alpha  occ. eigenvalues --   -7.98188  -7.97829  -7.97481  -7.96590  -7.96588
 Alpha  occ. eigenvalues --   -7.95936  -7.95933  -7.95826  -5.97226  -5.97096
 Alpha  occ. eigenvalues --   -5.97064  -5.96138  -5.96115  -5.96044  -5.95572
 Alpha  occ. eigenvalues --   -5.95492  -5.95427  -5.95200  -5.95163  -5.95094
 Alpha  occ. eigenvalues --   -5.94701  -5.94626  -5.94551  -5.94343  -5.94273
 Alpha  occ. eigenvalues --   -5.94236  -5.94171  -5.94038  -5.93978  -5.93857
 Alpha  occ. eigenvalues --   -5.93831  -5.93596  -5.93586  -5.93419  -5.93272
 Alpha  occ. eigenvalues --   -5.92653  -5.92580  -5.92562  -5.92527  -5.92429
 Alpha  occ. eigenvalues --   -5.92413  -5.92008  -5.91999  -5.91905  -5.91895
 Alpha  occ. eigenvalues --   -5.91816  -5.91784  -5.91767  -5.91726  -5.91679
 Alpha  occ. eigenvalues --   -2.58989  -2.57861  -2.57531  -2.57087  -2.56066
 Alpha  occ. eigenvalues --   -2.55834  -1.61513  -1.61388  -1.61354  -1.60834
 Alpha  occ. eigenvalues --   -1.60713  -1.60476  -1.59925  -1.59700  -1.59502
 Alpha  occ. eigenvalues --   -1.59411  -1.59232  -1.59000  -1.58720  -1.58371
 Alpha  occ. eigenvalues --   -1.58204  -1.57617  -1.57454  -1.57235  -0.77447
 Alpha  occ. eigenvalues --   -0.75323  -0.74915  -0.74126  -0.73604  -0.73098
 Alpha  occ. eigenvalues --   -0.72197  -0.71633  -0.71527  -0.71065  -0.70901
 Alpha  occ. eigenvalues --   -0.70248  -0.69788  -0.69157  -0.44723  -0.44023
 Alpha  occ. eigenvalues --   -0.43417  -0.42603  -0.41967  -0.41511  -0.41344
 Alpha  occ. eigenvalues --   -0.40765  -0.40463  -0.39403  -0.39026  -0.38950
 Alpha  occ. eigenvalues --   -0.38884  -0.38550  -0.38235  -0.38169  -0.37801
 Alpha  occ. eigenvalues --   -0.37628  -0.37361  -0.37041  -0.36727  -0.36368
 Alpha  occ. eigenvalues --   -0.35700  -0.35591  -0.34766  -0.34639  -0.34456
 Alpha  occ. eigenvalues --   -0.34233  -0.34192  -0.33290  -0.33150  -0.32278
 Alpha  occ. eigenvalues --   -0.32071  -0.31594  -0.31114  -0.30717  -0.30233
 Alpha  occ. eigenvalues --   -0.29795  -0.29561  -0.28703  -0.28482  -0.27723
 Alpha  occ. eigenvalues --   -0.27123  -0.26483  -0.25592  -0.24931
 Alpha virt. eigenvalues --   -0.18258  -0.17601  -0.17375  -0.16518  -0.16024
 Alpha virt. eigenvalues --   -0.15231  -0.14744  -0.14548  -0.14302  -0.13369
 Alpha virt. eigenvalues --   -0.12885  -0.12708  -0.12377  -0.12013  -0.11852

 Mulliken charges:
               1
     1  Mo  -0.016882
     2  S    0.130298
     3  S    0.007154
     4  S    0.283811
     5  S   -0.075737
     6  Mo  -0.195293
     7  S    0.030686
     8  S    0.215863
     9  Mo  -0.421653
    10  S   -0.105239
    11  S    0.023127
    12  Mo   0.248547
    13  Mo   0.258989
    14  S   -0.092308
    15  S   -0.094489
    16  S   -0.016825
    17  S   -0.158268
    18  Mo   0.239755
    19  S   -0.212175
    20  S   -0.049360
 Sum of Mulliken charges =  -0.00000

 Dipole moment (field-independent basis, Debye):
    X=              2.1641    Y=             -1.4336    Z=              2.4060  Tot=              3.5394
 Quadrupole moment (field-independent basis, Debye-Ang):
   XX=           -336.4266   YY=           -328.1193   ZZ=           -274.4113
   XY=             10.8586   XZ=             20.9036   YZ=             -5.8099

  Exact polarizability:     816.715    -120.650     394.627      87.978     -56.297     506.808
 Approx polarizability:    2272.867    -152.818    1293.113      90.990    -109.160    1606.886

                      1                      2                      3
                      A                      A                      A
 Frequencies --     20.0106                30.5976                50.3292
 Red. masses --     37.2528                40.0524                38.1607
 Frc consts  --      0.0088                 0.0221                 0.0570
 IR Inten    --      0.0780                 0.1114                 0.6844

                      4                      5                      6
                      A                      A                      A
 Frequencies --     51.1952                63.6796                70.9914
 Red. masses --     41.7975                40.4252                46.3326
 Frc consts  --      0.0645                 0.0966                 0.1376
 IR Inten    --      0.4473                 0.7550                 0.6356

                      7                      8                      9
                      A                      A                      A
 Frequencies --     77.3483                86.8834                88.8493
 Red. masses --     40.9571                40.1406                43.1856
 Frc consts  --      0.1444                 0.1785                 0.2009
 IR Inten    --      2.4907                 0.4298                 0.9373

                     10                     11                     12
                      A                      A                      A
 Frequencies --     90.8744                99.4968               105.8099
 Red. masses --     40.6175                39.5049                45.8713
 Frc consts  --      0.1976                 0.2304                 0.3026
 IR Inten    --      0.7724                 1.3925                 0.9251

                     13                     14                     15
                      A                      A                      A
 Frequencies --    113.0791               117.6445               123.1823
 Red. masses --     37.0300                37.6673                45.5496
 Frc consts  --      0.2790                 0.3072                 0.4072
 IR Inten    --      0.6668                 1.5548                 0.3298

                     16                     17                     18
                      A                      A                      A
 Frequencies --    133.8798               145.7183               148.8020
 Red. masses --     39.9375                41.2057                43.2112
 Frc consts  --      0.4218                 0.5155                 0.5637
 IR Inten    --      2.8173                 0.4236                 1.0672

                     19                     20                     21
                      A                      A                      A
 Frequencies --    151.0641               158.6331               164.4871
 Red. masses --     38.5062                39.6894                39.0465
 Frc consts  --      0.5177                 0.5885                 0.6224
 IR Inten    --      0.5844                 1.5644                 0.2833

                     22                     23                     24
                      A                      A                      A
 Frequencies --    177.4661               179.9402               182.1766
 Red. masses --     41.6852                37.3737                37.3378
 Frc consts  --      0.7735                 0.7130                 0.7301
 IR Inten    --      4.8422                 4.3771                 0.0243

                     25                     26                     27
                      A                      A                      A
 Frequencies --    187.5836               197.2495               201.5484
 Red. masses --     44.7892                43.0402                37.3624
 Frc consts  --      0.9286                 0.9866                 0.8942
 IR Inten    --      0.3872                 0.8496                 2.4970

                     28                     29                     30
                      A                      A                      A
 Frequencies --    217.1989               231.8999               242.6230
 Red. masses --     42.7673                35.5969                35.5421
 Frc consts  --      1.1887                 1.1279                 1.2327
 IR Inten    --      0.8802                 0.4361                30.6009

                     31                     32                     33
                      A                      A                      A
 Frequencies --    257.8231               279.4615               286.0682
 Red. masses --     41.6721                36.5100                38.9060
 Frc consts  --      1.6321                 1.6800                 1.8759
 IR Inten    --      0.8214                 1.1673                 6.3231

                     34                     35                     36
                      A                      A                      A
 Frequencies --    290.5832               299.4437               303.8716
 Red. masses --     39.3763                37.2667                36.7017
 Frc consts  --      1.9590                 1.9688                 1.9967
 IR Inten    --     16.8771                 7.1912                 1.6119

                     37                     38                     39
                      A                      A                      A
 Frequencies --    317.6929               331.1199               342.8508
 Red. masses --     35.4453                38.1344                41.5347
 Frc consts  --      2.1078                 2.4634                 2.8765
 IR Inten    --     56.5231                 0.4981                 5.5265

                     40                     41                     42
                      A                      A                      A
 Frequencies --    357.0032               371.1387               394.2642
 Red. masses --     43.4581                38.4984                35.6512
 Frc consts  --      3.2634                 3.1244                 3.2651
 IR Inten    --      7.6123                10.6636                25.4182

                     43                     44                     45
                      A                      A                      A
 Frequencies --    402.2568               408.0280               423.8036
 Red. masses --     34.6166                36.9126                38.9302
 Frc consts  --      3.3002                 3.6208                 4.1197
 IR Inten    --     46.2965                12.2545                 7.8902

                     46                     47                     48
                      A                      A                      A
 Frequencies --    429.7868               441.9807               444.5488
 Red. masses --     39.3597                39.2085                39.0544
 Frc consts  --      4.2836                 4.5127                 4.5474
 IR Inten    --     13.4919                30.2832                13.0900

                     49                     50                     51
                      A                      A                      A
 Frequencies --    452.7425               479.8280               550.8935
 Red. masses --     39.7415                38.6638                37.2483
 Frc consts  --      4.7995                 5.2448                 6.6603
 IR Inten    --     18.0901                10.4629                81.0397

                     52                     53                     54
                      A                      A                      A
 Frequencies --    558.4548               568.4290               573.7446
 Red. masses --     40.3109                39.4920                39.2028
 Frc consts  --      7.4071                 7.5182                 7.6033
 IR Inten    --     57.9391                83.6557               133.5029

 - Thermochemistry -
 -------------------
 Temperature   298.150 Kelvin.  Pressure   1.00000 Atm.
 Atom     1 has atomic number 42 and mass  97.90550

 Molecular mass:  1035.04201 amu.
 Principal axes and moments of inertia in atomic units:
                           1         2         3
     Eigenvalues --  ******************************
           X            0.90500  -0.37617   0.19866
           Y           -0.30271  -0.24132   0.92203
           Z            0.29890   0.89457   0.33227
 This molecule is an asymmetric top.
 Rotational symmetry number  1.
 Warning -- assumption of classical behavior for rotation
           may cause significant error
 Rotational temperatures (Kelvin)      0.00682     0.00231     0.00201
 Rotational constants (GHZ):           0.14220     0.04822     0.04189
 Zero-point vibrational energy      80604.7 (Joules/Mol)
                                   19.26500 (Kcal/Mol)
 Warning -- explicit consideration of  54 degrees of freedom as
           vibrations may cause significant error
 Vibrational temperatures:     28.79    44.02    72.41    73.66    91.62
          (Kelvin)            102.14   111.29   125.01   127.83   130.75
                              143.15   152.24   162.70   169.26   177.23
                              192.62   209.66   214.09   217.35   228.24
                              236.66   255.33   258.89   262.11   269.89
                              283.80   289.98   312.50   333.65   349.08
                              370.95   402.08   411.59   418.08   430.83
                              437.20   457.09   476.41   493.29   513.65
                              533.99   567.26   578.76   587.06   609.76
                              618.37   635.91   639.61   651.40   690.37
                              792.61   803.49   817.84   825.49

 Zero-point correction=                           0.030701 (Hartree/Particle)
 Thermal correction to Energy=                    0.061795
 Thermal correction to Enthalpy=                  0.062739
 Thermal correction to Gibbs Free Energy=        -0.035424
 Sum of electronic and zero-point Energies=          -5980.545245
 Sum of electronic and thermal Energies=             -5980.514150
 Sum of electronic and thermal Enthalpies=           -5980.513206
 Sum of electronic and thermal Free Energies=        -5980.611370

                     E (Thermal)             CV                S
                      KCal/Mol        Cal/Mol-Kelvin    Cal/Mol-Kelvin
 Total                   38.777             98.490            206.603
 Electronic               0.000              0.000              0.000
 Translational            0.889              2.981             46.684
 Rotational               0.889              2.981             38.257
 Vibrational             36.999             92.529            121.662
 Vibration     1          0.593              1.986              6.633
 Vibration     2          0.594              1.984              5.790
 Vibration     3          0.595              1.977              4.804
 Vibration     4          0.595              1.977              4.771
 Vibration     5          0.597              1.972              4.340
 Vibration     6          0.598              1.968              4.126
 Vibration     7          0.599              1.964              3.957
 Vibration     8          0.601              1.958              3.729
 Vibration     9          0.602              1.957              3.685
 Vibration    10          0.602              1.956              3.641
 Vibration    11          0.604              1.949              3.464
 Vibration    12          0.605              1.945              3.344
 Vibration    13          0.607              1.939              3.215
 Vibration    14          0.608              1.935              3.139
 Vibration    15          0.610              1.930              3.050
 Vibration    16          0.613              1.920              2.890
 Vibration    17          0.617              1.907              2.727
 Vibration    18          0.618              1.904              2.687
 Vibration    19          0.618              1.901              2.659
 Vibration    20          0.621              1.893              2.566
 Vibration    21          0.623              1.886              2.498
 Vibration    22          0.628              1.870              2.355
 Vibration    23          0.629              1.867              2.329
 Vibration    24          0.630              1.864              2.306
 Vibration    25          0.632              1.857              2.252
 Vibration    26          0.637              1.844              2.159
 Vibration    27          0.638              1.838              2.119
 Vibration    28          0.646              1.815              1.982
 Vibration    29          0.653              1.792              1.864
 Vibration    30          0.659              1.775              1.784
 Vibration    31          0.667              1.750              1.676
 Vibration    32          0.680              1.712              1.537
 Vibration    33          0.684              1.700              1.497
 Vibration    34          0.687              1.691              1.471
 Vibration    35          0.692              1.675              1.420
 Vibration    36          0.695              1.666              1.395
 Vibration    37          0.704              1.640              1.322
 Vibration    38          0.713              1.613              1.255
 Vibration    39          0.722              1.590              1.199
 Vibration    40          0.732              1.561              1.135
 Vibration    41          0.743              1.531              1.075
 Vibration    42          0.761              1.482              0.984
 Vibration    43          0.768              1.465              0.954
 Vibration    44          0.773              1.453              0.934
 Vibration    45          0.786              1.418              0.879
 Vibration    46          0.791              1.405              0.859
 Vibration    47          0.802              1.379              0.820
 Vibration    48          0.804              1.373              0.812
 Vibration    49          0.811              1.355              0.788
 Vibration    50          0.836              1.295              0.711
 Vibration    51          0.906              1.138              0.542
 Vibration    52          0.914              1.121              0.527
 Vibration    53          0.924              1.100              0.507
 Vibration    54          0.930              1.088              0.497

                           ! Non-Optimized Parameters !
 Normal termination of Gaussian 16 at Fri Dec  9 14:18:06 2022.
