 Gaussian 16, Revision C.01,
 Gaussian 16:  ES64L-G16RevC.01  3-Jul-2019

 ---------------------------------------
 # opt freq b3lyp/gen nosymm pseudo=read
 ---------------------------------------

 -------------------
 Title Card Required
 -------------------
 Symbolic Z-matrix:
 Charge =  0 Multiplicity = 1

 SCF Done:  E(RB3LYP) =  -6388.09680177     A.U. after   37 cycles
 SCF Done:  E(RB3LYP) =  -6388.12823052     A.U. after   25 cycles
 SCF Done:  E(RB3LYP) =  -6388.15897831     A.U. after   24 cycles
 SCF Done:  E(RB3LYP) =  -6388.17714138     A.U. after   23 cycles
 SCF Done:  E(RB3LYP) =  -6388.19109778     A.U. after   25 cycles
 SCF Done:  E(RB3LYP) =  -6388.19805448     A.U. after   22 cycles
 SCF Done:  E(RB3LYP) =  -6388.20407532     A.U. after   22 cycles
 SCF Done:  E(RB3LYP) =  -6388.21145287     A.U. after   22 cycles
 SCF Done:  E(RB3LYP) =  -6388.21546605     A.U. after   22 cycles
 SCF Done:  E(RB3LYP) =  -6388.21746287     A.U. after   22 cycles
 SCF Done:  E(RB3LYP) =  -6388.21896277     A.U. after   17 cycles
 SCF Done:  E(RB3LYP) =  -6388.21897397     A.U. after   15 cycles
 SCF Done:  E(RB3LYP) =  -6388.21897986     A.U. after   15 cycles
 SCF Done:  E(RB3LYP) =  -6388.21898219     A.U. after   15 cycles
 SCF Done:  E(RB3LYP) =  -6388.21898334     A.U. after   15 cycles
 SCF Done:  E(RB3LYP) =  -6388.21898414     A.U. after   14 cycles
 SCF Done:  E(RB3LYP) =  -6388.21898454     A.U. after   13 cycles
 SCF Done:  E(RB3LYP) =  -6388.21898488     A.U. after   12 cycles
 SCF Done:  E(RB3LYP) =  -6388.21898510     A.U. after   12 cycles
 Optimization completed.
    -- Stationary point found.

 1\1\GINC-NODE10-IB\FOpt\RB3LYP\Gen\C3Mo7O3S14\CHESAGAR\09-Dec-2022\0\\
 # opt freq b3lyp/gen nosymm pseudo=read\\Title Card Required\\0,1\Mo,0
 .4427523697,1.51382207,11.8872355236\S,1.3803520749,3.5622600895,12.31
 60173729\S,-1.5834134468,1.6550062181,12.9893096517\S,-0.3795376252,1.
 2742084493,9.6737060166\S,2.115087766,-0.1472002991,11.4575331303\Mo,-
 2.0357186664,2.5834883234,10.8793178182\S,-3.2934726416,2.0523491608,8
 .6841727271\S,-1.4106272198,4.7225430616,10.9620308288\Mo,0.4027125926
 ,3.4527345464,10.0404371898\S,-0.3500479382,4.313175489,7.7816817426\S

 Normal termination of Gaussian 16 at Fri Dec  9 15:49:31 2022.

 ------------------------------------------------------------------
 #N Geom=AllCheck Guess=TCheck SCRF=Check GenChk RB3LYP/ChkBas Freq
 ------------------------------------------------------------------

 Structure from the checkpoint file:  "/home/chesagar/scratch/Gau-53922.chk"
 -------------------
 Title Card Required
 -------------------
 Charge =  0 Multiplicity = 1

                          Input orientation:
 ---------------------------------------------------------------------
 Center     Atomic      Atomic             Coordinates (Angstroms)
 Number     Number       Type             X           Y           Z
 ---------------------------------------------------------------------
      1         42           0        0.442752    1.513822   11.887236
      2         16           0        1.380352    3.562260   12.316017
      3         16           0       -1.583413    1.655006   12.989310
      4         16           0       -0.379538    1.274208    9.673706
      5         16           0        2.115088   -0.147200   11.457533
      6         42           0       -2.035719    2.583488   10.879318
      7         16           0       -3.293473    2.052349    8.684173
      8         16           0       -1.410627    4.722543   10.962031
      9         42           0        0.402713    3.452735   10.040437
     10         16           0       -0.350048    4.313175    7.781682
     11         16           0        2.486980    2.957405    8.807177
     12         42           0        3.445993    1.390659   10.163040
     13         42           0       -2.613797    4.106133    7.666662
     14         16           0        4.736249    2.624965   11.503690
     15         16           0        4.743409    0.180114    9.015913
     16         16           0       -3.935591    5.698039    8.741015
     17         16           0       -3.252677    4.039805    5.665004
     18         42           0       -4.733601    3.677921    9.577768
     19         16           0       -6.731291    3.353447    8.975625
     20         16           0       -4.317980    3.289046   11.753444
     21         42           0        3.034035    1.613283   13.030816
     22          6           0        3.701807    3.013038   14.375596
     23          6           0        1.905659    0.849842   14.540118
     24          6           0        4.417604    0.241074   13.608051
     25          8           0        4.065190    3.788883   15.139297
     26          8           0        1.335293    0.392802   15.434455
     27          8           0        5.206494   -0.535492   13.913921
 ---------------------------------------------------------------------

 SCF Done:  E(RB3LYP) =  -6388.21898510     A.U. after    2 cycles

 Alpha  occ. eigenvalues --  -88.93127 -88.92636 -88.92308 -88.92050 -88.91764
 Alpha  occ. eigenvalues --  -88.91186 -88.89214 -88.89149 -88.89083 -88.89025
 Alpha  occ. eigenvalues --  -88.88964 -88.88576 -88.88446 -88.88191 -19.27029
 Alpha  occ. eigenvalues --  -19.26853 -19.25821 -10.34317 -10.34129 -10.33666
 Alpha  occ. eigenvalues --   -8.00673  -8.00245  -7.99951  -7.99558  -7.99305
 Alpha  occ. eigenvalues --   -7.98923  -7.97056  -7.97000  -7.96889  -7.96877
 Alpha  occ. eigenvalues --   -7.96714  -7.96349  -7.96209  -7.96119  -5.96703
 Alpha  occ. eigenvalues --   -5.96630  -5.96563  -5.96243  -5.96209  -5.96147
 Alpha  occ. eigenvalues --   -5.95982  -5.95897  -5.95838  -5.95611  -5.95552
 Alpha  occ. eigenvalues --   -5.95410  -5.95329  -5.95273  -5.95210  -5.94947
 Alpha  occ. eigenvalues --   -5.94869  -5.94796  -5.93064  -5.93039  -5.92989
 Alpha  occ. eigenvalues --   -5.92985  -5.92982  -5.92969  -5.92870  -5.92831
 Alpha  occ. eigenvalues --   -5.92831  -5.92816  -5.92770  -5.92707  -5.92677
 Alpha  occ. eigenvalues --   -5.92657  -5.92564  -5.92415  -5.92301  -5.92285
 Alpha  occ. eigenvalues --   -5.92185  -5.92183  -5.92104  -5.92078  -5.92002
 Alpha  occ. eigenvalues --   -5.91976  -2.57857  -2.57658  -2.57470  -2.56974
 Alpha  occ. eigenvalues --   -2.56363  -2.56096  -2.51598  -1.61413  -1.60743
 Alpha  occ. eigenvalues --   -1.60550  -1.60395  -1.59930  -1.59908  -1.59701
 Alpha  occ. eigenvalues --   -1.59615  -1.59486  -1.59430  -1.59272  -1.59069
 Alpha  occ. eigenvalues --   -1.58983  -1.58232  -1.57970  -1.57877  -1.57730
 Alpha  occ. eigenvalues --   -1.57524  -1.54352  -1.54018  -1.53854  -1.17310
 Alpha  occ. eigenvalues --   -1.17107  -1.16013  -0.77298  -0.75446  -0.75297
 Alpha  occ. eigenvalues --   -0.74754  -0.74111  -0.73472  -0.72095  -0.71759
 Alpha  occ. eigenvalues --   -0.71511  -0.71111  -0.70551  -0.70298  -0.70160
 Alpha  occ. eigenvalues --   -0.69422  -0.60470  -0.59573  -0.59038  -0.50253
 Alpha  occ. eigenvalues --   -0.49513  -0.49460  -0.49217  -0.48764  -0.48537
 Alpha  occ. eigenvalues --   -0.48116  -0.47260  -0.46981  -0.44240  -0.43748
 Alpha  occ. eigenvalues --   -0.43652  -0.42496  -0.42296  -0.41729  -0.41483
 Alpha  occ. eigenvalues --   -0.40957  -0.40646  -0.39646  -0.39395  -0.39030
 Alpha  occ. eigenvalues --   -0.38781  -0.38404  -0.38369  -0.38021  -0.37655
 Alpha  occ. eigenvalues --   -0.37312  -0.37253  -0.36989  -0.36685  -0.36407
 Alpha  occ. eigenvalues --   -0.36019  -0.35538  -0.34973  -0.34952  -0.34702
 Alpha  occ. eigenvalues --   -0.34628  -0.34359  -0.33681  -0.33360  -0.32711
 Alpha  occ. eigenvalues --   -0.32373  -0.32221  -0.31524  -0.31146  -0.30599
 Alpha  occ. eigenvalues --   -0.30325  -0.30005  -0.29440  -0.28935  -0.28544
 Alpha  occ. eigenvalues --   -0.28070  -0.27588  -0.27014  -0.26185  -0.26103
 Alpha  occ. eigenvalues --   -0.25519  -0.24093
 Alpha virt. eigenvalues --   -0.18643  -0.17546  -0.16794  -0.16646  -0.15606
 Alpha virt. eigenvalues --   -0.15398  -0.14781  -0.14126  -0.13911  -0.13605
 Alpha virt. eigenvalues --   -0.13123  -0.12741  -0.12593  -0.12135  -0.11374

 Mulliken charges:
               1
     1  Mo  -0.090351
     2  S    0.250783
     3  S    0.026207
     4  S    0.283159
     5  S    0.086096
     6  Mo  -0.259927
     7  S    0.032805
     8  S    0.232835
     9  Mo  -0.366245
    10  S   -0.089510
    11  S   -0.046015
    12  Mo   0.326887
    13  Mo   0.245122
    14  S    0.091453
    15  S   -0.159295
    16  S   -0.012948
    17  S   -0.153109
    18  Mo   0.234757
    19  S   -0.206729
    20  S   -0.044592
    21  Mo  -0.470667
    22  C    0.245466
    23  C    0.242555
    24  C    0.263033
    25  O   -0.211207
    26  O   -0.235973
    27  O   -0.214594
 Sum of Mulliken charges =  -0.00000

 Dipole moment (field-independent basis, Debye):
    X=              1.3694    Y=             -1.3626    Z=              1.9564  Tot=              2.7495
 Quadrupole moment (field-independent basis, Debye-Ang):
   XX=           -393.7478   YY=           -382.4530   ZZ=           -340.0740
   XY=              9.1150   XZ=             17.6322   YZ=             -6.9183

  Exact polarizability:     984.114    -166.134     440.245     163.276     -79.685     660.100
 Approx polarizability:    2648.930    -253.133    1400.407     173.221    -153.154    2026.802

                      1                      2                      3
                      A                      A                      A
 Frequencies --     27.7169                29.5368                37.8499
 Red. masses --     28.5146                31.8871                25.6089
 Frc consts  --      0.0129                 0.0164                 0.0216
 IR Inten    --      0.0801                 1.1630                 0.6666

                      4                      5                      6
                      A                      A                      A
 Frequencies --     48.8089                53.9711                56.8581
 Red. masses --     28.0211                19.3669                30.7232
 Frc consts  --      0.0393                 0.0332                 0.0585
 IR Inten    --      1.7795                 3.4024                 3.1186

                      7                      8                      9
                      A                      A                      A
 Frequencies --     66.9862                69.6257                76.2279
 Red. masses --     28.7762                29.1917                17.6396
 Frc consts  --      0.0761                 0.0834                 0.0604
 IR Inten    --      0.0813                 0.4587                 0.0436

                     10                     11                     12
                      A                      A                      A
 Frequencies --     79.3416                80.7217                86.4422
 Red. masses --     29.1840                19.9755                26.2159
 Frc consts  --      0.1082                 0.0767                 0.1154
 IR Inten    --      0.4321                 2.1389                 1.4485

                     13                     14                     15
                      A                      A                      A
 Frequencies --     87.0673                92.7369                95.0844
 Red. masses --     36.8844                30.6091                31.0945
 Frc consts  --      0.1647                 0.1551                 0.1656
 IR Inten    --      0.7072                 4.2418                 0.3626

                     16                     17                     18
                      A                      A                      A
 Frequencies --     96.7216               106.2439               110.8626
 Red. masses --     30.4075                31.8592                37.9152
 Frc consts  --      0.1676                 0.2119                 0.2746
 IR Inten    --      3.2531                 0.0599                 0.0940

                     19                     20                     21
                      A                      A                      A
 Frequencies --    115.5915               120.8523               122.3870
 Red. masses --     35.9787                37.4581                36.3187
 Frc consts  --      0.2832                 0.3223                 0.3205
 IR Inten    --      0.4108                 6.4729                 2.0953

                     22                     23                     24
                      A                      A                      A
 Frequencies --    132.0738               138.6116               142.9628
 Red. masses --     40.5858                40.2887                39.8124
 Frc consts  --      0.4171                 0.4561                 0.4794
 IR Inten    --      5.1643                 3.2853                 3.5593

                     25                     26                     27
                      A                      A                      A
 Frequencies --    145.3952               150.7415               160.3652
 Red. masses --     37.7511                40.8371                38.7077
 Frc consts  --      0.4702                 0.5467                 0.5865
 IR Inten    --      1.4019                 0.7733                 0.3506

                     28                     29                     30
                      A                      A                      A
 Frequencies --    169.8112               178.6448               179.3521
 Red. masses --     38.4814                39.9661                37.6638
 Frc consts  --      0.6538                 0.7515                 0.7138
 IR Inten    --      2.0395                 3.5431                 3.5370

                     31                     32                     33
                      A                      A                      A
 Frequencies --    182.3596               188.9124               192.4886
 Red. masses --     43.2908                51.7191                46.7027
 Frc consts  --      0.8482                 1.0875                 1.0195
 IR Inten    --      0.5348                 3.2862                 4.0345

                     34                     35                     36
                      A                      A                      A
 Frequencies --    211.7245               219.1431               233.0659
 Red. masses --     36.6292                40.2638                37.5796
 Frc consts  --      0.9674                 1.1393                 1.2027
 IR Inten    --      2.5626                 4.2347                 3.3027

                     37                     38                     39
                      A                      A                      A
 Frequencies --    247.0123               263.1589               264.5566
 Red. masses --     34.4816                38.9348                35.3040
 Frc consts  --      1.2396                 1.5886                 1.4558
 IR Inten    --     62.5421                 0.3670                 8.5507

                     40                     41                     42
                      A                      A                      A
 Frequencies --    278.4738               279.7168               286.2091
 Red. masses --     34.6888                39.4339                36.8259
 Frc consts  --      1.5849                 1.8178                 1.7773
 IR Inten    --     19.2009                 5.7876                15.3536

                     43                     44                     45
                      A                      A                      A
 Frequencies --    290.9103               299.2019               308.5131
 Red. masses --     35.8853                37.6794                36.3229
 Frc consts  --      1.7893                 1.9874                 2.0369
 IR Inten    --      0.7924                 6.2360                 5.5379

                     46                     47                     48
                      A                      A                      A
 Frequencies --    327.2233               330.7014               342.1438
 Red. masses --     36.3135                37.0477                40.8276
 Frc consts  --      2.2909                 2.3872                 2.8159
 IR Inten    --     15.7917                 2.3537                 6.1221

                     49                     50                     51
                      A                      A                      A
 Frequencies --    356.2101               365.4116               382.5186
 Red. masses --     42.0141                30.6351                32.1687
 Frc consts  --      3.1409                 2.4101                 2.7732
 IR Inten    --      0.9192                21.2797                51.7354

                     52                     53                     54
                      A                      A                      A
 Frequencies --    391.6189               394.3258               398.8594
 Red. masses --     16.4170                30.8642                18.0797
 Frc consts  --      1.4834                 2.8276                 1.6947
 IR Inten    --     12.0710                 8.0021                39.3247

                     55                     56                     57
                      A                      A                      A
 Frequencies --    405.9188               410.3899               416.5829
 Red. masses --     33.2039                17.9142                21.0899
 Frc consts  --      3.2234                 1.7776                 2.1564
 IR Inten    --     12.0306                13.6230                16.6966

                     58                     59                     60
                      A                      A                      A
 Frequencies --    427.8434               429.8426               434.6271
 Red. masses --     29.8384                28.2694                30.6364
 Frc consts  --      3.2181                 3.0774                 3.4097
 IR Inten    --     34.9093                 6.3747                29.5886

                     61                     62                     63
                      A                      A                      A
 Frequencies --    440.7307               443.5910               451.9952
 Red. masses --     16.7145                34.9305                38.9731
 Frc consts  --      1.9129                 4.0497                 4.6912
 IR Inten    --      8.1167                12.2908                17.8603

                     64                     65                     66
                      A                      A                      A
 Frequencies --    456.0555               471.1711               474.5291
 Red. masses --     17.0770                23.7737                22.5776
 Frc consts  --      2.0927                 3.1096                 2.9954
 IR Inten    --      9.2286                10.8138                 2.0667

                     67                     68                     69
                      A                      A                      A
 Frequencies --    509.4666               536.2540               560.4210
 Red. masses --     13.6727                13.4787                36.0861
 Frc consts  --      2.0909                 2.2837                 6.6776
 IR Inten    --     12.7690                30.7317               149.3287

                     70                     71                     72
                      A                      A                      A
 Frequencies --    569.0099               570.2938               575.0479
 Red. masses --     35.4108                14.8750                37.9690
 Frc consts  --      6.7550                 2.8504                 7.3975
 IR Inten    --    115.0131               100.9188               116.3781

                     73                     74                     75
                      A                      A                      A
 Frequencies --   2051.9040              2095.6520              2123.3347
 Red. masses --     13.3886                13.3981                13.3774
 Frc consts  --     33.2122                34.6682                35.5353
 IR Inten    --    584.4192               697.4881              2638.6352

 - Thermochemistry -
 -------------------
 Temperature   298.150 Kelvin.  Pressure   1.00000 Atm.
 Atom     1 has atomic number 42 and mass  97.90550

 Molecular mass:  1216.93225 amu.
 Principal axes and moments of inertia in atomic units:
                           1         2         3
     Eigenvalues --  ******************************
           X            0.86966  -0.44809   0.20714
           Y           -0.28934  -0.12271   0.94933
           Z            0.39997   0.88552   0.23637
 This molecule is an asymmetric top.
 Rotational symmetry number  1.
 Warning -- assumption of classical behavior for rotation
           may cause significant error
 Rotational temperatures (Kelvin)      0.00537     0.00154     0.00136
 Rotational constants (GHZ):           0.11192     0.03218     0.02828
 Zero-point vibrational energy     149226.4 (Joules/Mol)
                                   35.66598 (Kcal/Mol)
 Warning -- explicit consideration of  72 degrees of freedom as
           vibrations may cause significant error
 Vibrational temperatures:     39.88    42.50    54.46    70.23    77.65
          (Kelvin)             81.81    96.38   100.18   109.67   114.15
                              116.14   124.37   125.27   133.43   136.81
                              139.16   152.86   159.51   166.31   173.88
                              176.09   190.02   199.43   205.69   209.19
                              216.88   230.73   244.32   257.03   258.05
                              262.37   271.80   276.95   304.62   315.30
                              335.33   355.40   378.63   380.64   400.66
                              402.45   411.79   418.55   430.48   443.88
                              470.80   475.81   492.27   512.51   525.75
                              550.36   563.45   567.35   573.87   584.03
                              590.46   599.37   615.57   618.45   625.33
                              634.11   638.23   650.32   656.16   677.91
                              682.74   733.01   771.55   806.32   818.68
                              820.53   827.37  2952.23  3015.18  3055.01

 Zero-point correction=                           0.056837 (Hartree/Particle)
 Thermal correction to Energy=                    0.096567
 Thermal correction to Enthalpy=                  0.097511
 Thermal correction to Gibbs Free Energy=        -0.018984
 Sum of electronic and zero-point Energies=          -6388.162148
 Sum of electronic and thermal Energies=             -6388.122418
 Sum of electronic and thermal Enthalpies=           -6388.121474
 Sum of electronic and thermal Free Energies=        -6388.237969

                     E (Thermal)             CV                S
                      KCal/Mol        Cal/Mol-Kelvin    Cal/Mol-Kelvin
 Total                   60.596            127.911            245.183
 Electronic               0.000              0.000              0.000
 Translational            0.889              2.981             47.167
 Rotational               0.889              2.981             39.287
 Vibrational             58.819            121.949            158.730
 Vibration     1          0.593              1.984              5.986
 Vibration     2          0.593              1.984              5.860
 Vibration     3          0.594              1.982              5.369
 Vibration     4          0.595              1.978              4.865
 Vibration     5          0.596              1.976              4.666
 Vibration     6          0.596              1.975              4.563
 Vibration     7          0.598              1.970              4.240
 Vibration     8          0.598              1.969              4.164
 Vibration     9          0.599              1.965              3.986
 Vibration    10          0.600              1.963              3.907
 Vibration    11          0.600              1.962              3.873
 Vibration    12          0.601              1.959              3.739
 Vibration    13          0.601              1.958              3.725
 Vibration    14          0.602              1.954              3.601
 Vibration    15          0.603              1.953              3.553
 Vibration    16          0.603              1.952              3.519
 Vibration    17          0.605              1.944              3.336
 Vibration    18          0.607              1.940              3.254
 Vibration    19          0.608              1.936              3.173
 Vibration    20          0.609              1.932              3.087
 Vibration    21          0.610              1.930              3.062
 Vibration    22          0.612              1.921              2.916
 Vibration    23          0.614              1.915              2.823
 Vibration    24          0.616              1.910              2.764
 Vibration    25          0.617              1.908              2.732
 Vibration    26          0.618              1.902              2.663
 Vibration    27          0.622              1.891              2.545
 Vibration    28          0.625              1.880              2.438
 Vibration    29          0.629              1.869              2.343
 Vibration    30          0.629              1.868              2.335
 Vibration    31          0.630              1.864              2.304
 Vibration    32          0.633              1.855              2.238
 Vibration    33          0.634              1.850              2.204
 Vibration    34          0.643              1.823              2.029
 Vibration    35          0.647              1.812              1.966
 Vibration    36          0.654              1.790              1.855
 Vibration    37          0.661              1.768              1.752
 Vibration    38          0.670              1.740              1.641
 Vibration    39          0.671              1.738              1.632
 Vibration    40          0.679              1.713              1.543
 Vibration    41          0.680              1.711              1.535
 Vibration    42          0.684              1.699              1.496
 Vibration    43          0.687              1.691              1.469
 Vibration    44          0.692              1.675              1.421
 Vibration    45          0.698              1.658              1.370
 Vibration    46          0.711              1.621              1.274
 Vibration    47          0.713              1.614              1.257
 Vibration    48          0.721              1.591              1.202
 Vibration    49          0.732              1.563              1.139
 Vibration    50          0.739              1.543              1.099
 Vibration    51          0.752              1.507              1.029
 Vibration    52          0.759              1.488              0.994
 Vibration    53          0.761              1.482              0.984
 Vibration    54          0.765              1.473              0.967
 Vibration    55          0.771              1.457              0.941
 Vibration    56          0.775              1.448              0.925
 Vibration    57          0.780              1.434              0.904
 Vibration    58          0.789              1.410              0.866
 Vibration    59          0.791              1.405              0.859
 Vibration    60          0.795              1.395              0.844
 Vibration    61          0.801              1.381              0.824
 Vibration    62          0.803              1.375              0.815
 Vibration    63          0.811              1.356              0.790
 Vibration    64          0.814              1.348              0.778
 Vibration    65          0.828              1.314              0.734
 Vibration    66          0.831              1.307              0.725
 Vibration    67          0.865              1.229              0.635
 Vibration    68          0.891              1.170              0.573
 Vibration    69          0.916              1.117              0.523
 Vibration    70          0.925              1.098              0.506
 Vibration    71          0.926              1.096              0.504
 Vibration    72          0.931              1.085              0.495

                           ! Non-Optimized Parameters !

 1\1\GINC-NODE10-IB\Freq\RB3LYP\Gen\C3Mo7O3S14\CHESAGAR\09-Dec-2022\0\\
 #N Geom=AllCheck Guess=TCheck SCRF=Check GenChk RB3LYP/ChkBas Freq\\Ti
 tle Card Required\\0,1\Mo,0.4427523697,1.51382207,11.8872355236\S,1.38
 03520749,3.5622600895,12.3160173729\S,-1.5834134468,1.6550062181,12.98
 93096517\S,-0.3795376252,1.2742084493,9.6737060166\S,2.115087766,-0.14
 72002991,11.4575331303\Mo,-2.0357186664,2.5834883234,10.8793178182\S,-
 3.2934726416,2.0523491608,8.6841727271\S,-1.4106272198,4.7225430616,10
 .9620308288\Mo,0.4027125926,3.4527345464,10.0404371898\S,-0.3500479382

 Normal termination of Gaussian 16 at Fri Dec  9 15:56:17 2022.
