 Gaussian 16, Revision C.01,
 Gaussian 16:  ES64L-G16RevC.01  3-Jul-2019

 ---------------------------------------
 # opt freq b3lyp/gen nosymm pseudo=read
 ---------------------------------------

 -------------------
 Title Card Required
 -------------------
 Symbolic Z-matrix:
 Charge =  0 Multiplicity = 1

 SCF Done:  E(RB3LYP) =  -6274.84616806     A.U. after   31 cycles
 SCF Done:  E(RB3LYP) =  -6274.84829519     A.U. after   20 cycles
 SCF Done:  E(RB3LYP) =  -6274.84912402     A.U. after   20 cycles
 SCF Done:  E(RB3LYP) =  -6274.84934428     A.U. after   18 cycles
 SCF Done:  E(RB3LYP) =  -6274.84944355     A.U. after   18 cycles
 SCF Done:  E(RB3LYP) =  -6274.84948180     A.U. after   18 cycles
 SCF Done:  E(RB3LYP) =  -6274.84951255     A.U. after   17 cycles
 SCF Done:  E(RB3LYP) =  -6274.84954035     A.U. after   18 cycles
 SCF Done:  E(RB3LYP) =  -6274.84955256     A.U. after   16 cycles
 SCF Done:  E(RB3LYP) =  -6274.84956266     A.U. after   16 cycles
 SCF Done:  E(RB3LYP) =  -6274.84956678     A.U. after   16 cycles
 SCF Done:  E(RB3LYP) =  -6274.84956946     A.U. after   15 cycles
 SCF Done:  E(RB3LYP) =  -6274.84957056     A.U. after   15 cycles
 SCF Done:  E(RB3LYP) =  -6274.84957125     A.U. after   13 cycles
 SCF Done:  E(RB3LYP) =  -6274.84957162     A.U. after   13 cycles
 SCF Done:  E(RB3LYP) =  -6274.84957177     A.U. after   12 cycles
 Optimization completed.
    -- Stationary point found.
 Normal termination of Gaussian 16 at Fri Dec  9 16:37:23 2022.

 ------------------------------------------------------------------
 #N Geom=AllCheck Guess=TCheck SCRF=Check GenChk RB3LYP/ChkBas Freq
 ------------------------------------------------------------------

 Structure from the checkpoint file:  "/home/chesagar/scratch/Gau-9821.chk"
 -------------------
 Title Card Required
 -------------------
 Charge =  0 Multiplicity = 1

                          Input orientation:
 ---------------------------------------------------------------------
 Center     Atomic      Atomic             Coordinates (Angstroms)
 Number     Number       Type             X           Y           Z
 ---------------------------------------------------------------------
      1         42           0        0.441709    1.488722   11.889056
      2         16           0        1.378360    3.555155   12.358250
      3         16           0       -1.584782    1.664281   12.999285
      4         16           0       -0.392949    1.255839    9.681503
      5         16           0        2.119229   -0.189888   11.503732
      6         42           0       -2.038983    2.580032   10.888027
      7         16           0       -3.301282    2.056168    8.691576
      8         16           0       -1.406305    4.719511   10.980579
      9         42           0        0.392633    3.435683   10.072779
     10         16           0       -0.335873    4.294721    7.798650
     11         16           0        2.450610    2.840884    8.778534
     12         42           0        3.460117    1.373274   10.185288
     13         42           0       -2.598563    4.101217    7.672161
     14         16           0        4.637147    2.738505   11.538726
     15         16           0        4.852244    0.187139    9.123881
     16         16           0       -3.906095    5.707612    8.741781
     17         16           0       -3.229740    4.042321    5.667456
     18         42           0       -4.726972    3.696699    9.579912
     19         16           0       -6.726678    3.390045    8.974539
     20         16           0       -4.317569    3.305543   11.756392
     21         42           0        2.982958    1.601446   12.946165
     22          6           0        1.884148    0.846397   14.496212
     23          6           0        4.415506    0.262342   13.517084
     24          8           0        1.341231    0.404224   15.414383
     25          8           0        5.224764   -0.496442   13.812191
 ---------------------------------------------------------------------

 SCF Done:  E(RB3LYP) =  -6274.84957177     A.U. after    3 cycles

 Alpha  occ. eigenvalues --  -88.92861 -88.92470 -88.92141 -88.91884 -88.91239
 Alpha  occ. eigenvalues --  -88.90935 -88.88834 -88.88815 -88.88741 -88.88656
 Alpha  occ. eigenvalues --  -88.88399 -88.88306 -88.88196 -88.88050 -19.27358
 Alpha  occ. eigenvalues --  -19.26541 -10.34446 -10.34016  -8.00412  -8.00087
 Alpha  occ. eigenvalues --   -7.99785  -7.99406  -7.98803  -7.98669  -7.96809
 Alpha  occ. eigenvalues --   -7.96567  -7.96565  -7.96541  -7.96170  -7.96068
 Alpha  occ. eigenvalues --   -7.95979  -7.95939  -5.96438  -5.96377  -5.96298
 Alpha  occ. eigenvalues --   -5.96086  -5.96047  -5.95987  -5.95815  -5.95731
 Alpha  occ. eigenvalues --   -5.95674  -5.95411  -5.95382  -5.95321  -5.94854
 Alpha  occ. eigenvalues --   -5.94814  -5.94700  -5.94634  -5.94612  -5.94538
 Alpha  occ. eigenvalues --   -5.92795  -5.92777  -5.92641  -5.92633  -5.92620
 Alpha  occ. eigenvalues --   -5.92578  -5.92559  -5.92510  -5.92466  -5.92419
 Alpha  occ. eigenvalues --   -5.92365  -5.92363  -5.92238  -5.92144  -5.92122
 Alpha  occ. eigenvalues --   -5.92042  -5.92028  -5.92002  -5.91963  -5.91938
 Alpha  occ. eigenvalues --   -5.91904  -5.91862  -5.91836  -5.91742  -2.57702
 Alpha  occ. eigenvalues --   -2.57348  -2.57130  -2.56554  -2.56197  -2.55947
 Alpha  occ. eigenvalues --   -2.52365  -1.61287  -1.60558  -1.60300  -1.59958
 Alpha  occ. eigenvalues --   -1.59744  -1.59531  -1.59470  -1.59433  -1.59268
 Alpha  occ. eigenvalues --   -1.59074  -1.58868  -1.58823  -1.58649  -1.58081
 Alpha  occ. eigenvalues --   -1.57719  -1.57692  -1.57576  -1.57369  -1.54877
 Alpha  occ. eigenvalues --   -1.54779  -1.54491  -1.17574  -1.16632  -0.77065
 Alpha  occ. eigenvalues --   -0.75209  -0.75102  -0.74672  -0.73746  -0.73234
 Alpha  occ. eigenvalues --   -0.71735  -0.71604  -0.71219  -0.70717  -0.70335
 Alpha  occ. eigenvalues --   -0.69984  -0.69818  -0.69285  -0.60505  -0.59610
 Alpha  occ. eigenvalues --   -0.50268  -0.49469  -0.49284  -0.49096  -0.48673
 Alpha  occ. eigenvalues --   -0.47618  -0.44064  -0.43523  -0.43495  -0.42279
 Alpha  occ. eigenvalues --   -0.42125  -0.41490  -0.41259  -0.41094  -0.40493
 Alpha  occ. eigenvalues --   -0.39365  -0.39258  -0.38884  -0.38665  -0.38314
 Alpha  occ. eigenvalues --   -0.38154  -0.37879  -0.37605  -0.37222  -0.36928
 Alpha  occ. eigenvalues --   -0.36731  -0.36474  -0.36097  -0.35758  -0.35195
 Alpha  occ. eigenvalues --   -0.34831  -0.34763  -0.34546  -0.34417  -0.34124
 Alpha  occ. eigenvalues --   -0.33330  -0.33209  -0.32674  -0.32334  -0.31940
 Alpha  occ. eigenvalues --   -0.31317  -0.30964  -0.30405  -0.30181  -0.29806
 Alpha  occ. eigenvalues --   -0.29132  -0.28920  -0.28463  -0.27876  -0.27493
 Alpha  occ. eigenvalues --   -0.26809  -0.26023  -0.25833  -0.25380  -0.23856
 Alpha virt. eigenvalues --   -0.18300  -0.17377  -0.16615  -0.16231  -0.15879
 Alpha virt. eigenvalues --   -0.15259  -0.14813  -0.14271  -0.13914  -0.13253
 Alpha virt. eigenvalues --   -0.12896  -0.12529  -0.12446  -0.12150  -0.11952

 Mulliken charges:
               1
     1  Mo  -0.043261
     2  S    0.228921
     3  S    0.019208
     4  S    0.289156
     5  S    0.084308
     6  Mo  -0.270163
     7  S    0.031027
     8  S    0.234440
     9  Mo  -0.363432
    10  S   -0.089573
    11  S   -0.057844
    12  Mo   0.360987
    13  Mo   0.245980
    14  S    0.065684
    15  S   -0.176063
    16  S   -0.014092
    17  S   -0.155842
    18  Mo   0.232340
    19  S   -0.208369
    20  S   -0.045328
    21  Mo  -0.388521
    22  C    0.210441
    23  C    0.234514
    24  O   -0.222122
    25  O   -0.202396
 Sum of Mulliken charges =  -0.00000

 Dipole moment (field-independent basis, Debye):
    X=              1.7854    Y=             -1.2953    Z=              3.2065  Tot=              3.8920
 Quadrupole moment (field-independent basis, Debye-Ang):
   XX=           -383.8859   YY=           -371.6091   ZZ=           -298.0802
   XY=             11.3537   XZ=             27.1282   YZ=             -2.4195

  Exact polarizability:     961.266    -180.681     431.199     133.937     -97.813     621.105
 Approx polarizability:    2618.744    -279.572    1366.317     129.949    -199.682    1987.929

                      1                      2                      3
                      A                      A                      A
 Frequencies --     30.3888                32.0768                38.4497
 Red. masses --     32.6044                34.5809                25.8530
 Frc consts  --      0.0177                 0.0210                 0.0225
 IR Inten    --      1.3945                 0.6174                 0.5286

                      4                      5                      6
                      A                      A                      A
 Frequencies --     51.4598                57.2048                61.2964
 Red. masses --     28.7525                25.4014                22.4925
 Frc consts  --      0.0449                 0.0490                 0.0498
 IR Inten    --      1.4052                 7.1628                 0.1179

                      7                      8                      9
                      A                      A                      A
 Frequencies --     68.6431                72.0375                78.2651
 Red. masses --     25.4628                31.1499                38.1874
 Frc consts  --      0.0707                 0.0952                 0.1378
 IR Inten    --      1.0251                 0.0715                 2.1548

                     10                     11                     12
                      A                      A                      A
 Frequencies --     85.5371                87.3013                92.2589
 Red. masses --     25.6828                34.3879                33.5549
 Frc consts  --      0.1107                 0.1544                 0.1683
 IR Inten    --      0.2218                 0.7231                 1.9593

                     13                     14                     15
                      A                      A                      A
 Frequencies --     94.5818                97.5488               107.8911
 Red. masses --     27.9885                33.8841                34.6841
 Frc consts  --      0.1475                 0.1900                 0.2379
 IR Inten    --      0.3847                 4.0424                 0.3766

                     16                     17                     18
                      A                      A                      A
 Frequencies --    111.5883               115.8753               122.4391
 Red. masses --     37.7051                36.9728                38.3170
 Frc consts  --      0.2766                 0.2925                 0.3384
 IR Inten    --      0.3882                 0.3197                 2.3598

                     19                     20                     21
                      A                      A                      A
 Frequencies --    124.0091               132.7639               139.5047
 Red. masses --     38.2301                41.4354                42.3269
 Frc consts  --      0.3464                 0.4303                 0.4853
 IR Inten    --      6.1782                 2.8845                 2.0909

                     22                     23                     24
                      A                      A                      A
 Frequencies --    142.3683               147.2786               150.9172
 Red. masses --     39.8341                39.4766                40.0745
 Frc consts  --      0.4757                 0.5045                 0.5378
 IR Inten    --      2.2240                 0.5963                 0.9972

                     25                     26                     27
                      A                      A                      A
 Frequencies --    160.6544               171.6496               179.1278
 Red. masses --     38.9677                39.4303                37.9506
 Frc consts  --      0.5926                 0.6845                 0.7175
 IR Inten    --      0.4532                 0.1445                 0.2817

                     28                     29                     30
                      A                      A                      A
 Frequencies --    181.8351               183.4235               190.4816
 Red. masses --     36.8026                47.6427                49.6794
 Frc consts  --      0.7169                 0.9444                 1.0620
 IR Inten    --      6.9430                 0.9733                 1.1317

                     31                     32                     33
                      A                      A                      A
 Frequencies --    196.3401               213.0362               221.8366
 Red. masses --     50.5774                37.1099                39.4529
 Frc consts  --      1.1487                 0.9923                 1.1439
 IR Inten    --      4.2323                 3.2178                 5.4006

                     34                     35                     36
                      A                      A                      A
 Frequencies --    232.5689               245.0198               260.7214
 Red. masses --     37.4717                34.5071                37.3722
 Frc consts  --      1.1941                 1.2206                 1.4968
 IR Inten    --      6.2290                52.0010                 1.3673

                     37                     38                     39
                      A                      A                      A
 Frequencies --    264.4531               277.8818               278.8223
 Red. masses --     36.6576                39.8836                37.3308
 Frc consts  --      1.5105                 1.8145                 1.7099
 IR Inten    --      5.8202                 1.0517                30.3788

                     40                     41                     42
                      A                      A                      A
 Frequencies --    287.2403               299.1815               300.7659
 Red. masses --     38.4550                37.7695                36.0522
 Frc consts  --      1.8694                 1.9919                 1.9215
 IR Inten    --      1.5613                 5.3143                 5.6733

                     43                     44                     45
                      A                      A                      A
 Frequencies --    308.8572               326.3542               328.1725
 Red. masses --     36.2845                35.0580                38.4165
 Frc consts  --      2.0393                 2.2000                 2.4377
 IR Inten    --      3.1477                 3.6434                 2.9980

                     46                     47                     48
                      A                      A                      A
 Frequencies --    342.0230               353.7370               376.2721
 Red. masses --     40.9372                42.5596                28.5022
 Frc consts  --      2.8215                 3.1377                 2.3776
 IR Inten    --      5.9883                 1.8765                27.7381

                     49                     50                     51
                      A                      A                      A
 Frequencies --    383.8556               389.3468               397.4281
 Red. masses --     23.7672                25.1099                27.5678
 Frc consts  --      2.0633                 2.2427                 2.5655
 IR Inten    --     12.4934                80.2353                 0.9649

                     52                     53                     54
                      A                      A                      A
 Frequencies --    400.1239               407.4201               410.3467
 Red. masses --     19.1647                35.1881                27.2946
 Frc consts  --      1.8078                 3.4414                 2.7079
 IR Inten    --     40.4368                12.2771                17.9593

                     55                     56                     57
                      A                      A                      A
 Frequencies --    422.3479               428.5645               433.0930
 Red. masses --     26.0448                35.9344                38.1865
 Frc consts  --      2.7372                 3.8886                 4.2201
 IR Inten    --     43.1068                 2.4297                13.4698

                     58                     59                     60
                      A                      A                      A
 Frequencies --    442.3809               445.5392               450.6916
 Red. masses --     25.3286                17.2465                18.9710
 Frc consts  --      2.9205                 2.0171                 2.2704
 IR Inten    --     18.9603                 3.4533                 6.4809

                     61                     62                     63
                      A                      A                      A
 Frequencies --    452.0817               472.7279               492.5547
 Red. masses --     34.3040                38.6568                15.9012
 Frc consts  --      4.1307                 5.0898                 2.2729
 IR Inten    --     21.5062                 7.0995                 3.2801

                     64                     65                     66
                      A                      A                      A
 Frequencies --    546.4300               560.7622               568.9295
 Red. masses --     13.4080                35.6450                39.5256
 Frc consts  --      2.3588                 6.6040                 7.5378
 IR Inten    --     68.9259               108.2361                90.7386

                     67                     68                     69
                      A                      A                      A
 Frequencies --    574.7457              2049.2877              2108.1480
 Red. masses --     39.1960                13.4017                13.3938
 Frc consts  --      7.6286                33.1601                35.0717
 IR Inten    --    143.8346               761.2907              2123.2723

 - Thermochemistry -
 -------------------
 Temperature   298.150 Kelvin.  Pressure   1.00000 Atm.
 Atom     1 has atomic number 42 and mass  97.90550

 Molecular mass:  1188.93733 amu.
 Principal axes and moments of inertia in atomic units:
                           1         2         3
     Eigenvalues --  ******************************
           X            0.87465  -0.43810   0.20747
           Y           -0.31706  -0.19329   0.92850
           Z            0.36668   0.87790   0.30797
 This molecule is an asymmetric top.
 Rotational symmetry number  1.
 Warning -- assumption of classical behavior for rotation
           may cause significant error
 Rotational temperatures (Kelvin)      0.00585     0.00165     0.00143
 Rotational constants (GHZ):           0.12191     0.03438     0.02979
 Zero-point vibrational energy     127156.7 (Joules/Mol)
                                   30.39119 (Kcal/Mol)
 Warning -- explicit consideration of  67 degrees of freedom as
           vibrations may cause significant error
 Vibrational temperatures:     43.72    46.15    55.32    74.04    82.30
          (Kelvin)             88.19    98.76   103.65   112.61   123.07
                              125.61   132.74   136.08   140.35   155.23
                              160.55   166.72   176.16   178.42   191.02
                              200.72   204.84   211.90   217.14   231.15
                              246.97   257.72   261.62   263.91   274.06
                              282.49   306.51   319.17   334.61   352.53
                              375.12   380.49   399.81   401.16   413.27
                              430.46   432.73   444.38   469.55   472.17
                              492.09   508.95   541.37   552.28   560.18
                              571.81   575.69   586.19   590.40   607.66
                              616.61   623.12   636.49   641.03   648.44
                              650.44   680.15   708.68   786.19   806.81
                              818.56   826.93  2948.47  3033.15

 Zero-point correction=                           0.048431 (Hartree/Particle)
 Thermal correction to Energy=                    0.085812
 Thermal correction to Enthalpy=                  0.086756
 Thermal correction to Gibbs Free Energy=        -0.024334
 Sum of electronic and zero-point Energies=          -6274.801140
 Sum of electronic and thermal Energies=             -6274.763760
 Sum of electronic and thermal Enthalpies=           -6274.762816
 Sum of electronic and thermal Free Energies=        -6274.873906

                     E (Thermal)             CV                S
                      KCal/Mol        Cal/Mol-Kelvin    Cal/Mol-Kelvin
 Total                   53.848            120.106            233.809
 Electronic               0.000              0.000              0.000
 Translational            0.889              2.981             47.097
 Rotational               0.889              2.981             39.084
 Vibrational             52.070            114.145            147.628
 Vibration     1          0.594              1.984              5.804
 Vibration     2          0.594              1.983              5.697
 Vibration     3          0.594              1.982              5.337
 Vibration     4          0.596              1.977              4.760
 Vibration     5          0.596              1.975              4.551
 Vibration     6          0.597              1.973              4.415
 Vibration     7          0.598              1.969              4.192
 Vibration     8          0.598              1.967              4.097
 Vibration     9          0.600              1.964              3.934
 Vibration    10          0.601              1.959              3.760
 Vibration    11          0.601              1.958              3.720
 Vibration    12          0.602              1.955              3.612
 Vibration    13          0.603              1.953              3.563
 Vibration    14          0.603              1.951              3.503
 Vibration    15          0.606              1.943              3.307
 Vibration    16          0.607              1.940              3.241
 Vibration    17          0.608              1.936              3.168
 Vibration    18          0.610              1.930              3.062
 Vibration    19          0.610              1.929              3.037
 Vibration    20          0.613              1.921              2.906
 Vibration    21          0.615              1.914              2.811
 Vibration    22          0.616              1.911              2.772
 Vibration    23          0.617              1.906              2.707
 Vibration    24          0.618              1.902              2.661
 Vibration    25          0.622              1.891              2.542
 Vibration    26          0.626              1.877              2.417
 Vibration    27          0.629              1.868              2.337
 Vibration    28          0.630              1.864              2.309
 Vibration    29          0.631              1.862              2.293
 Vibration    30          0.634              1.853              2.223
 Vibration    31          0.636              1.845              2.167
 Vibration    32          0.644              1.821              2.018
 Vibration    33          0.648              1.808              1.944
 Vibration    34          0.653              1.791              1.859
 Vibration    35          0.660              1.771              1.766
 Vibration    36          0.669              1.745              1.657
 Vibration    37          0.671              1.738              1.632
 Vibration    38          0.679              1.714              1.547
 Vibration    39          0.679              1.713              1.541
 Vibration    40          0.684              1.697              1.490
 Vibration    41          0.692              1.675              1.421
 Vibration    42          0.693              1.672              1.413
 Vibration    43          0.698              1.657              1.368
 Vibration    44          0.710              1.623              1.278
 Vibration    45          0.711              1.619              1.269
 Vibration    46          0.721              1.591              1.203
 Vibration    47          0.730              1.568              1.150
 Vibration    48          0.747              1.521              1.054
 Vibration    49          0.753              1.505              1.024
 Vibration    50          0.757              1.493              1.003
 Vibration    51          0.764              1.476              0.972
 Vibration    52          0.766              1.470              0.962
 Vibration    53          0.772              1.454              0.936
 Vibration    54          0.775              1.448              0.925
 Vibration    55          0.785              1.422              0.884
 Vibration    56          0.790              1.408              0.863
 Vibration    57          0.794              1.398              0.849
 Vibration    58          0.802              1.378              0.819
 Vibration    59          0.805              1.371              0.809
 Vibration    60          0.809              1.359              0.794
 Vibration    61          0.811              1.356              0.790
 Vibration    62          0.830              1.311              0.730
 Vibration    63          0.848              1.267              0.677
 Vibration    64          0.902              1.148              0.552
 Vibration    65          0.916              1.116              0.522
 Vibration    66          0.925              1.098              0.506
 Vibration    67          0.931              1.086              0.495

                           ! Non-Optimized Parameters !
 Normal termination of Gaussian 16 at Fri Dec  9 16:43:13 2022.
