 Gaussian 16, Revision C.01,
 Gaussian 16:  ES64L-G16RevC.01  3-Jul-2019

 ---------------------------------------
 # opt freq b3lyp/gen nosymm pseudo=read
 ---------------------------------------

 -------------------
 Title Card Required
 -------------------
 Symbolic Z-matrix:
 Charge =  0 Multiplicity = 1

 SCF Done:  E(RB3LYP) =  -6161.46392580     A.U. after   37 cycles
 SCF Done:  E(RB3LYP) =  -6161.47220992     A.U. after   22 cycles
 SCF Done:  E(RB3LYP) =  -6161.47584342     A.U. after   22 cycles
 SCF Done:  E(RB3LYP) =  -6161.47703753     A.U. after   22 cycles
 SCF Done:  E(RB3LYP) =  -6161.47742671     A.U. after   20 cycles
 SCF Done:  E(RB3LYP) =  -6161.47766479     A.U. after   21 cycles
 SCF Done:  E(RB3LYP) =  -6161.47774433     A.U. after   20 cycles
 SCF Done:  E(RB3LYP) =  -6161.47786028     A.U. after   20 cycles
 SCF Done:  E(RB3LYP) =  -6161.47788866     A.U. after   19 cycles
 SCF Done:  E(RB3LYP) =  -6161.47792938     A.U. after   19 cycles
 SCF Done:  E(RB3LYP) =  -6161.47796973     A.U. after   20 cycles
 SCF Done:  E(RB3LYP) =  -6161.47798920     A.U. after   19 cycles
 SCF Done:  E(RB3LYP) =  -6161.47800424     A.U. after   19 cycles
 SCF Done:  E(RB3LYP) =  -6161.47801000     A.U. after   18 cycles
 SCF Done:  E(RB3LYP) =  -6161.47801118     A.U. after   16 cycles
 SCF Done:  E(RB3LYP) =  -6161.47801156     A.U. after   15 cycles
 Optimization completed.
    -- Stationary point found.

 1\1\GINC-NODE10-IB\FOpt\RB3LYP\Gen\C1Mo7O1S14\CHESAGAR\09-Dec-2022\0\\
 # opt freq b3lyp/gen nosymm pseudo=read\\Title Card Required\\0,1\Mo,0
 .4167862314,1.4692886265,11.8345294109\S,1.3558045629,3.5035879308,12.
 3340213509\S,-1.5859814028,1.6099814226,12.9652273737\S,-0.4149191393,
 1.2514349733,9.635109241\S,2.0841977777,-0.2199489623,11.6415320061\Mo
 ,-2.0596471194,2.5750284571,10.8555550801\S,-3.3173606086,2.0877035607
 ,8.6555401206\S,-1.4291010848,4.7165161308,10.9712487159\Mo,0.35192739
 74,3.4387260439,10.0270330757\S,-0.3401038165,4.3271093606,7.775726417

 Normal termination of Gaussian 16 at Fri Dec  9 16:38:24 2022.

 ------------------------------------------------------------------
 #N Geom=AllCheck Guess=TCheck SCRF=Check GenChk RB3LYP/ChkBas Freq
 ------------------------------------------------------------------

 Structure from the checkpoint file:  "/home/chesagar/scratch/Gau-69381.chk"
 -------------------
 Title Card Required
 -------------------
 Charge =  0 Multiplicity = 1

                          Input orientation:
 ---------------------------------------------------------------------
 Center     Atomic      Atomic             Coordinates (Angstroms)
 Number     Number       Type             X           Y           Z
 ---------------------------------------------------------------------
      1         42           0        0.416786    1.469289   11.834529
      2         16           0        1.355805    3.503588   12.334021
      3         16           0       -1.585981    1.609981   12.965227
      4         16           0       -0.414919    1.251435    9.635109
      5         16           0        2.084198   -0.219949   11.641532
      6         42           0       -2.059647    2.575028   10.855555
      7         16           0       -3.317361    2.087704    8.655540
      8         16           0       -1.429101    4.716516   10.971249
      9         42           0        0.351927    3.438726   10.027033
     10         16           0       -0.340104    4.327109    7.775726
     11         16           0        2.416707    2.700977    8.790735
     12         42           0        3.487783    1.327923   10.242943
     13         42           0       -2.609598    4.145827    7.669798
     14         16           0        4.614779    2.813271   11.592317
     15         16           0        4.941246    0.121237    9.292568
     16         16           0       -3.915980    5.735598    8.769143
     17         16           0       -3.255828    4.116076    5.669532
     18         42           0       -4.734063    3.712700    9.584703
     19         16           0       -6.737570    3.418067    8.983324
     20         16           0       -4.326486    3.291783   11.756317
     21         42           0        3.042717    1.624452   12.862818
     22          6           0        4.478953    0.297701   13.453534
     23          8           0        5.309651   -0.446252   13.730314
 ---------------------------------------------------------------------

 SCF Done:  E(RB3LYP) =  -6161.47801156     A.U. after    1 cycles

 Alpha  occ. eigenvalues --  -88.92421 -88.92124 -88.91867 -88.91439 -88.91104
 Alpha  occ. eigenvalues --  -88.90473 -88.88867 -88.88641 -88.88492 -88.88307
 Alpha  occ. eigenvalues --  -88.88271 -88.88160 -88.88055 -88.87750 -19.27551
 Alpha  occ. eigenvalues --  -10.34420  -7.99964  -7.99746  -7.99511  -7.99030
 Alpha  occ. eigenvalues --   -7.98691  -7.98201  -7.96655  -7.96618  -7.96241
 Alpha  occ. eigenvalues --   -7.96197  -7.96102  -7.95938  -7.95810  -7.95677
 Alpha  occ. eigenvalues --   -5.95983  -5.95932  -5.95856  -5.95759  -5.95704
 Alpha  occ. eigenvalues --   -5.95635  -5.95540  -5.95458  -5.95399  -5.95063
 Alpha  occ. eigenvalues --   -5.94979  -5.94932  -5.94733  -5.94687  -5.94543
 Alpha  occ. eigenvalues --   -5.94225  -5.94152  -5.94072  -5.92713  -5.92634
 Alpha  occ. eigenvalues --   -5.92600  -5.92587  -5.92456  -5.92454  -5.92288
 Alpha  occ. eigenvalues --   -5.92224  -5.92192  -5.92185  -5.92166  -5.92097
 Alpha  occ. eigenvalues --   -5.92030  -5.92000  -5.91976  -5.91956  -5.91894
 Alpha  occ. eigenvalues --   -5.91886  -5.91785  -5.91772  -5.91663  -5.91633
 Alpha  occ. eigenvalues --   -5.91604  -5.91537  -2.57150  -2.56803  -2.56497
 Alpha  occ. eigenvalues --   -2.55962  -2.55851  -2.55670  -2.52718  -1.60755
 Alpha  occ. eigenvalues --   -1.60004  -1.59802  -1.59557  -1.59311  -1.59195
 Alpha  occ. eigenvalues --   -1.58975  -1.58875  -1.58829  -1.58583  -1.58557
 Alpha  occ. eigenvalues --   -1.58257  -1.57947  -1.57490  -1.57434  -1.57305
 Alpha  occ. eigenvalues --   -1.57111  -1.56969  -1.55434  -1.55112  -1.54366
 Alpha  occ. eigenvalues --   -1.17651  -0.76656  -0.74950  -0.74714  -0.74368
 Alpha  occ. eigenvalues --   -0.73608  -0.72779  -0.71662  -0.71333  -0.71137
 Alpha  occ. eigenvalues --   -0.70619  -0.70141  -0.69800  -0.69531  -0.68990
 Alpha  occ. eigenvalues --   -0.60324  -0.49547  -0.49424  -0.49314  -0.43630
 Alpha  occ. eigenvalues --   -0.43245  -0.43136  -0.41948  -0.41759  -0.41148
 Alpha  occ. eigenvalues --   -0.40936  -0.40829  -0.40167  -0.39136  -0.38950
 Alpha  occ. eigenvalues --   -0.38844  -0.38436  -0.38194  -0.37999  -0.37831
 Alpha  occ. eigenvalues --   -0.37642  -0.37475  -0.36837  -0.36506  -0.36176
 Alpha  occ. eigenvalues --   -0.35745  -0.35378  -0.34916  -0.34663  -0.34519
 Alpha  occ. eigenvalues --   -0.34334  -0.34122  -0.33962  -0.33148  -0.33019
 Alpha  occ. eigenvalues --   -0.32616  -0.32151  -0.31527  -0.31094  -0.30715
 Alpha  occ. eigenvalues --   -0.30166  -0.29781  -0.29548  -0.29421  -0.28487
 Alpha  occ. eigenvalues --   -0.28280  -0.27467  -0.27050  -0.26851  -0.25979
 Alpha  occ. eigenvalues --   -0.25721  -0.25037  -0.22687
 Alpha virt. eigenvalues --   -0.17829  -0.17467  -0.16545  -0.15993  -0.15564
 Alpha virt. eigenvalues --   -0.14906  -0.14583  -0.14191  -0.13667  -0.12884
 Alpha virt. eigenvalues --   -0.12633  -0.12381  -0.12190  -0.11958  -0.11403

 Mulliken charges:
               1
     1  Mo   0.014375
     2  S    0.172297
     3  S   -0.006275
     4  S    0.279836
     5  S    0.022124
     6  Mo  -0.291165
     7  S    0.032253
     8  S    0.229758
     9  Mo  -0.337603
    10  S   -0.093176
    11  S   -0.064529
    12  Mo   0.302617
    13  Mo   0.240788
    14  S    0.052273
    15  S   -0.185252
    16  S   -0.015221
    17  S   -0.156018
    18  Mo   0.229704
    19  S   -0.212326
    20  S   -0.047831
    21  Mo  -0.186152
    22  C    0.216268
    23  O   -0.196743
 Sum of Mulliken charges =  -0.00000

 Dipole moment (field-independent basis, Debye):
    X=              2.4414    Y=             -1.5728    Z=              4.6002  Tot=              5.4402
 Quadrupole moment (field-independent basis, Debye-Ang):
   XX=           -375.3344   YY=           -363.1754   ZZ=           -251.3378
   XY=             14.0015   XZ=             36.3902   YZ=             -4.9952

  Exact polarizability:    1005.287    -194.199     430.943     144.356     -87.687     569.581
 Approx polarizability:    2849.825    -340.651    1371.316     256.562    -196.899    1909.974

                      1                      2                      3
                      A                      A                      A
 Frequencies --     30.7426                34.1878                35.9782
 Red. masses --     33.4017                39.0254                33.5423
 Frc consts  --      0.0186                 0.0269                 0.0256
 IR Inten    --      2.1213                 0.3153                 1.5872

                      4                      5                      6
                      A                      A                      A
 Frequencies --     55.0243                60.6734                65.4202
 Red. masses --     30.1625                35.2436                24.4605
 Frc consts  --      0.0538                 0.0764                 0.0617
 IR Inten    --      9.4541                 1.5276                 1.3749

                      7                      8                      9
                      A                      A                      A
 Frequencies --     69.4812                75.3634                85.1158
 Red. masses --     30.1959                37.2609                35.6977
 Frc consts  --      0.0859                 0.1247                 0.1524
 IR Inten    --      0.9157                 6.2861                 0.5078

                     10                     11                     12
                      A                      A                      A
 Frequencies --     87.4412                90.4532                93.3604
 Red. masses --     43.8469                38.9758                35.1151
 Frc consts  --      0.1975                 0.1879                 0.1803
 IR Inten    --      1.4195                 0.4910                 3.6273

                     13                     14                     15
                      A                      A                      A
 Frequencies --    102.9865               110.6679               113.9607
 Red. masses --     39.1949                39.6661                37.3309
 Frc consts  --      0.2449                 0.2862                 0.2856
 IR Inten    --      0.3746                 0.8339                 0.3099

                     16                     17                     18
                      A                      A                      A
 Frequencies --    119.5200               120.5476               133.2346
 Red. masses --     41.6241                38.1426                42.9455
 Frc consts  --      0.3503                 0.3266                 0.4492
 IR Inten    --      7.5476                 1.8288                 1.3768

                     19                     20                     21
                      A                      A                      A
 Frequencies --    134.9990               142.2154               145.5783
 Red. masses --     39.6720                40.0068                38.9777
 Frc consts  --      0.4260                 0.4767                 0.4867
 IR Inten    --      1.4079                 0.9160                 1.2651

                     22                     23                     24
                      A                      A                      A
 Frequencies --    150.1801               157.3485               165.7292
 Red. masses --     39.2832                39.1984                41.5513
 Frc consts  --      0.5220                 0.5718                 0.6724
 IR Inten    --      0.5590                 0.9458                 0.8573

                     25                     26                     27
                      A                      A                      A
 Frequencies --    178.3707               180.4494               182.4888
 Red. masses --     45.7349                40.9032                39.9085
 Frc consts  --      0.8573                 0.7847                 0.7830
 IR Inten    --      1.4626                 2.6047                 1.9948

                     28                     29                     30
                      A                      A                      A
 Frequencies --    189.9160               192.3387               213.5343
 Red. masses --     46.6105                49.5188                37.2645
 Frc consts  --      0.9905                 1.0793                 1.0011
 IR Inten    --      0.5225                 5.6756                 4.0971

                     31                     32                     33
                      A                      A                      A
 Frequencies --    224.4220               231.6792               246.2163
 Red. masses --     38.7761                36.5760                37.7081
 Frc consts  --      1.1507                 1.1567                 1.3468
 IR Inten    --      7.5656                 3.1018                24.9028

                     34                     35                     36
                      A                      A                      A
 Frequencies --    253.3060               257.1286               267.2857
 Red. masses --     36.4021                38.0616                37.9631
 Frc consts  --      1.3762                 1.4826                 1.5980
 IR Inten    --     22.5539                12.6422                11.8933

                     37                     38                     39
                      A                      A                      A
 Frequencies --    273.0779               286.2015               298.2282
 Red. masses --     38.3658                39.5037                37.8328
 Frc consts  --      1.6856                 1.9065                 1.9825
 IR Inten    --     13.2200                 4.7803                 7.5002

                     40                     41                     42
                      A                      A                      A
 Frequencies --    304.8582               309.9873               326.0051
 Red. masses --     37.6106                38.9603                38.2825
 Frc consts  --      2.0595                 2.2058                 2.3972
 IR Inten    --      6.2526                17.1425                 8.8481

                     43                     44                     45
                      A                      A                      A
 Frequencies --    331.9516               341.2560               354.7085
 Red. masses --     37.1672                41.1758                42.8638
 Frc consts  --      2.4130                 2.8252                 3.1775
 IR Inten    --      3.0864                 6.6522                 2.0838

                     46                     47                     48
                      A                      A                      A
 Frequencies --    380.8889               386.2302               388.7018
 Red. masses --     36.1055                18.6144                30.9622
 Frc consts  --      3.0862                 1.6360                 2.7562
 IR Inten    --     46.0045               131.4752                 9.5279

                     49                     50                     51
                      A                      A                      A
 Frequencies --    397.7303               406.1799               417.0831
 Red. masses --     38.4096                36.8096                33.0963
 Frc consts  --      3.5799                 3.5781                 3.3921
 IR Inten    --     32.8690                 9.1791                 3.6379

                     52                     53                     54
                      A                      A                      A
 Frequencies --    422.7384               428.1933               432.3108
 Red. masses --     34.0768                36.1142                37.9698
 Frc consts  --      3.5880                 3.9013                 4.1810
 IR Inten    --     25.6389                 3.4622                10.2116

                     55                     56                     57
                      A                      A                      A
 Frequencies --    440.3283               446.4431               451.1125
 Red. masses --     27.5582                17.7548                32.8314
 Frc consts  --      3.1481                 2.0850                 3.9365
 IR Inten    --     23.3401                 1.5340                24.6671

                     58                     59                     60
                      A                      A                      A
 Frequencies --    471.4177               477.1424               559.5497
 Red. masses --     38.3462                15.0804                39.1607
 Frc consts  --      5.0209                 2.0228                 7.2240
 IR Inten    --      6.4199                 3.8979               134.1421

                     61                     62                     63
                      A                      A                      A
 Frequencies --    568.0609               574.6947              2089.3833
 Red. masses --     39.5361                39.1687                13.4101
 Frc consts  --      7.5168                 7.6219                34.4919
 IR Inten    --     97.7549               139.3747              2247.4185

 - Thermochemistry -
 -------------------
 Temperature   298.150 Kelvin.  Pressure   1.00000 Atm.
 Atom     1 has atomic number 42 and mass  97.90550

 Molecular mass:  1160.94242 amu.
 Principal axes and moments of inertia in atomic units:
                           1         2         3
     Eigenvalues --  ******************************
           X            0.89068  -0.40562   0.20534
           Y           -0.31245  -0.21803   0.92458
           Z            0.33026   0.88766   0.32093
 This molecule is an asymmetric top.
 Rotational symmetry number  1.
 Warning -- assumption of classical behavior for rotation
           may cause significant error
 Rotational temperatures (Kelvin)      0.00660     0.00168     0.00149
 Rotational constants (GHZ):           0.13751     0.03500     0.03113
 Zero-point vibrational energy     105042.9 (Joules/Mol)
                                   25.10587 (Kcal/Mol)
 Warning -- explicit consideration of  62 degrees of freedom as
           vibrations may cause significant error
 Vibrational temperatures:     44.23    49.19    51.76    79.17    87.30
          (Kelvin)             94.13    99.97   108.43   122.46   125.81
                              130.14   134.32   148.17   159.23   163.96
                              171.96   173.44   191.69   194.23   204.62
                              209.45   216.08   226.39   238.45   256.64
                              259.63   262.56   273.25   276.73   307.23
                              322.89   333.33   354.25   364.45   369.95
                              384.56   392.90   411.78   429.08   438.62
                              446.00   469.05   477.60   490.99   510.35
                              548.01   555.70   559.26   572.25   584.40
                              600.09   608.23   616.07   622.00   633.53
                              642.33   649.05   678.26   686.50   805.07
                              817.31   826.86  3006.16

 Zero-point correction=                           0.040009 (Hartree/Particle)
 Thermal correction to Energy=                    0.075183
 Thermal correction to Enthalpy=                  0.076127
 Thermal correction to Gibbs Free Energy=        -0.030321
 Sum of electronic and zero-point Energies=          -6161.438003
 Sum of electronic and thermal Energies=             -6161.402829
 Sum of electronic and thermal Enthalpies=           -6161.401885
 Sum of electronic and thermal Free Energies=        -6161.508333

                     E (Thermal)             CV                S
                      KCal/Mol        Cal/Mol-Kelvin    Cal/Mol-Kelvin
 Total                   47.178            112.299            224.039
 Electronic               0.000              0.000              0.000
 Translational            0.889              2.981             47.026
 Rotational               0.889              2.981             38.903
 Vibrational             45.400            106.337            138.109
 Vibration     1          0.594              1.984              5.781
 Vibration     2          0.594              1.983              5.570
 Vibration     3          0.594              1.982              5.469
 Vibration     4          0.596              1.976              4.628
 Vibration     5          0.597              1.973              4.435
 Vibration     6          0.597              1.971              4.287
 Vibration     7          0.598              1.969              4.168
 Vibration     8          0.599              1.965              4.008
 Vibration     9          0.601              1.959              3.769
 Vibration    10          0.601              1.958              3.717
 Vibration    11          0.602              1.956              3.650
 Vibration    12          0.602              1.954              3.588
 Vibration    13          0.605              1.947              3.397
 Vibration    14          0.607              1.941              3.257
 Vibration    15          0.607              1.938              3.200
 Vibration    16          0.609              1.933              3.108
 Vibration    17          0.609              1.932              3.092
 Vibration    18          0.613              1.920              2.899
 Vibration    19          0.613              1.918              2.874
 Vibration    20          0.616              1.911              2.774
 Vibration    21          0.617              1.907              2.729
 Vibration    22          0.618              1.902              2.670
 Vibration    23          0.621              1.894              2.581
 Vibration    24          0.624              1.885              2.483
 Vibration    25          0.629              1.869              2.345
 Vibration    26          0.629              1.866              2.324
 Vibration    27          0.630              1.864              2.303
 Vibration    28          0.633              1.854              2.229
 Vibration    29          0.634              1.850              2.205
 Vibration    30          0.644              1.820              2.013
 Vibration    31          0.649              1.804              1.923
 Vibration    32          0.653              1.793              1.866
 Vibration    33          0.661              1.769              1.758
 Vibration    34          0.664              1.757              1.707
 Vibration    35          0.667              1.751              1.681
 Vibration    36          0.672              1.733              1.614
 Vibration    37          0.676              1.723              1.577
 Vibration    38          0.684              1.699              1.496
 Vibration    39          0.691              1.677              1.427
 Vibration    40          0.696              1.664              1.390
 Vibration    41          0.699              1.655              1.362
 Vibration    42          0.710              1.623              1.280
 Vibration    43          0.714              1.612              1.251
 Vibration    44          0.721              1.593              1.206
 Vibration    45          0.731              1.566              1.145
 Vibration    46          0.751              1.511              1.036
 Vibration    47          0.755              1.500              1.015
 Vibration    48          0.757              1.494              1.005
 Vibration    49          0.764              1.475              0.971
 Vibration    50          0.771              1.457              0.940
 Vibration    51          0.780              1.433              0.902
 Vibration    52          0.785              1.421              0.883
 Vibration    53          0.790              1.409              0.865
 Vibration    54          0.793              1.400              0.851
 Vibration    55          0.800              1.382              0.826
 Vibration    56          0.806              1.369              0.807
 Vibration    57          0.810              1.358              0.792
 Vibration    58          0.828              1.313              0.734
 Vibration    59          0.834              1.301              0.718
 Vibration    60          0.915              1.119              0.525
 Vibration    61          0.924              1.100              0.508
 Vibration    62          0.931              1.086              0.495

                           ! Non-Optimized Parameters !

 1\1\GINC-NODE10-IB\Freq\RB3LYP\Gen\C1Mo7O1S14\CHESAGAR\09-Dec-2022\0\\
 #N Geom=AllCheck Guess=TCheck SCRF=Check GenChk RB3LYP/ChkBas Freq\\Ti
 tle Card Required\\0,1\Mo,0.4167862314,1.4692886265,11.8345294109\S,1.
 3558045629,3.5035879308,12.3340213509\S,-1.5859814028,1.6099814226,12.
 9652273737\S,-0.4149191393,1.2514349733,9.635109241\S,2.0841977777,-0.
 2199489623,11.6415320061\Mo,-2.0596471194,2.5750284571,10.8555550801\S
 ,-3.3173606086,2.0877035607,8.6555401206\S,-1.4291010848,4.7165161308,
 10.9712487159\Mo,0.3519273974,3.4387260439,10.0270330757\S,-0.34010381

 Normal termination of Gaussian 16 at Fri Dec  9 16:43:25 2022.
