 Gaussian 16, Revision C.01,
 Gaussian 16:  ES64L-G16RevC.01  3-Jul-2019

 ---------------------------------------
 # opt freq b3lyp/gen nosymm pseudo=read
 ---------------------------------------

 -------------------
 Title Card Required
 -------------------
 Symbolic Z-matrix:
 Charge =  0 Multiplicity = 1

 SCF Done:  E(RB3LYP) =  -6048.08652175     A.U. after   44 cycles
 SCF Done:  E(RB3LYP) =  -6048.09997244     A.U. after   28 cycles
 SCF Done:  E(RB3LYP) =  -6048.11282622     A.U. after   28 cycles
 SCF Done:  E(RB3LYP) =  -6048.11777324     A.U. after   24 cycles
 SCF Done:  E(RB3LYP) =  -6048.12090757     A.U. after   24 cycles
 SCF Done:  E(RB3LYP) =  -6048.12161853     A.U. after   23 cycles
 SCF Done:  E(RB3LYP) =  -6048.12222438     A.U. after   23 cycles
 SCF Done:  E(RB3LYP) =  -6048.12240809     A.U. after   21 cycles
 SCF Done:  E(RB3LYP) =  -6048.12248896     A.U. after   22 cycles
 SCF Done:  E(RB3LYP) =  -6048.12252966     A.U. after   22 cycles
 SCF Done:  E(RB3LYP) =  -6048.12256032     A.U. after   21 cycles
 SCF Done:  E(RB3LYP) =  -6048.12256847     A.U. after   19 cycles
 SCF Done:  E(RB3LYP) =  -6048.12257003     A.U. after   15 cycles
 SCF Done:  E(RB3LYP) =  -6048.12257046     A.U. after   15 cycles
 SCF Done:  E(RB3LYP) =  -6048.12257073     A.U. after   15 cycles
 Optimization completed.
    -- Stationary point found.
 Normal termination of Gaussian 16 at Fri Dec  9 16:38:02 2022.

 ------------------------------------------------------------------
 #N Geom=AllCheck Guess=TCheck SCRF=Check GenChk RB3LYP/ChkBas Freq
 ------------------------------------------------------------------

 Structure from the checkpoint file:  "/home/chesagar/scratch/Gau-41665.chk"
 -------------------
 Title Card Required
 -------------------
 Charge =  0 Multiplicity = 1

                          Input orientation:
 ---------------------------------------------------------------------
 Center     Atomic      Atomic             Coordinates (Angstroms)
 Number     Number       Type             X           Y           Z
 ---------------------------------------------------------------------
      1         42           0        0.430646    1.433965   11.827335
      2         16           0        1.331921    3.504324   12.415686
      3         16           0       -1.602531    1.535709   12.937461
      4         16           0       -0.384457    1.239671    9.626833
      5         16           0        2.236484   -0.170755   11.738191
      6         42           0       -2.045743    2.547341   10.856770
      7         16           0       -3.300380    2.088156    8.648767
      8         16           0       -1.439859    4.705940   11.027934
      9         42           0        0.308219    3.454898   10.053298
     10         16           0       -0.338782    4.352197    7.800538
     11         16           0        2.374340    2.669751    8.705746
     12         42           0        3.464109    1.336676   10.130015
     13         42           0       -2.602676    4.157955    7.675936
     14         16           0        4.685825    2.826457   11.448660
     15         16           0        4.918310    0.106427    9.199238
     16         16           0       -3.901761    5.735527    8.798894
     17         16           0       -3.241709    4.149381    5.672564
     18         42           0       -4.721548    3.703975    9.590123
     19         16           0       -6.724835    3.416763    8.985698
     20         16           0       -4.317977    3.269997   11.757949
     21         42           0        3.022219    1.848848   12.673961
 ---------------------------------------------------------------------

 SCF Done:  E(RB3LYP) =  -6048.12257072     A.U. after    3 cycles

 Alpha  occ. eigenvalues --  -88.92288 -88.92101 -88.91796 -88.91503 -88.90992
 Alpha  occ. eigenvalues --  -88.90283 -88.89359 -88.88504 -88.88468 -88.88451
 Alpha  occ. eigenvalues --  -88.88176 -88.88061 -88.88054 -88.87746  -7.99832
 Alpha  occ. eigenvalues --   -7.99740  -7.99443  -7.99076  -7.98664  -7.98012
 Alpha  occ. eigenvalues --   -7.97232  -7.96480  -7.96251  -7.96218  -7.95971
 Alpha  occ. eigenvalues --   -7.95949  -7.95816  -7.95675  -5.95845  -5.95812
 Alpha  occ. eigenvalues --   -5.95755  -5.95718  -5.95699  -5.95621  -5.95475
 Alpha  occ. eigenvalues --   -5.95387  -5.95331  -5.95123  -5.95068  -5.94927
 Alpha  occ. eigenvalues --   -5.94704  -5.94591  -5.94567  -5.94032  -5.93956
 Alpha  occ. eigenvalues --   -5.93895  -5.93284  -5.93190  -5.93041  -5.92463
 Alpha  occ. eigenvalues --   -5.92448  -5.92316  -5.92308  -5.92265  -5.92193
 Alpha  occ. eigenvalues --   -5.92162  -5.92093  -5.92075  -5.92054  -5.92017
 Alpha  occ. eigenvalues --   -5.91945  -5.91904  -5.91889  -5.91792  -5.91777
 Alpha  occ. eigenvalues --   -5.91718  -5.91658  -5.91633  -5.91613  -5.91535
 Alpha  occ. eigenvalues --   -2.57155  -2.56528  -2.56434  -2.55849  -2.55634
 Alpha  occ. eigenvalues --   -2.55154  -2.53428  -1.60762  -1.59864  -1.59580
 Alpha  occ. eigenvalues --   -1.59348  -1.59187  -1.59133  -1.59088  -1.58892
 Alpha  occ. eigenvalues --   -1.58570  -1.58482  -1.58362  -1.58156  -1.57382
 Alpha  occ. eigenvalues --   -1.57290  -1.57249  -1.57099  -1.57039  -1.56626
 Alpha  occ. eigenvalues --   -1.56144  -1.55294  -1.55019  -0.76547  -0.74926
 Alpha  occ. eigenvalues --   -0.74644  -0.74230  -0.73777  -0.72644  -0.72172
 Alpha  occ. eigenvalues --   -0.71333  -0.71212  -0.70638  -0.70133  -0.69694
 Alpha  occ. eigenvalues --   -0.69323  -0.68986  -0.43722  -0.43454  -0.43062
 Alpha  occ. eigenvalues --   -0.41806  -0.41706  -0.41142  -0.40819  -0.40669
 Alpha  occ. eigenvalues --   -0.40186  -0.39334  -0.38977  -0.38931  -0.38561
 Alpha  occ. eigenvalues --   -0.38324  -0.38077  -0.37880  -0.37729  -0.37463
 Alpha  occ. eigenvalues --   -0.37130  -0.36411  -0.36346  -0.35687  -0.35521
 Alpha  occ. eigenvalues --   -0.34998  -0.34633  -0.34500  -0.34459  -0.34298
 Alpha  occ. eigenvalues --   -0.34042  -0.33190  -0.32867  -0.32679  -0.32274
 Alpha  occ. eigenvalues --   -0.31388  -0.31013  -0.30721  -0.30196  -0.30006
 Alpha  occ. eigenvalues --   -0.29786  -0.29314  -0.28584  -0.28388  -0.27577
 Alpha  occ. eigenvalues --   -0.27107  -0.26685  -0.25951  -0.25646  -0.24930
 Alpha  occ. eigenvalues --   -0.22423
 Alpha virt. eigenvalues --   -0.17629  -0.17328  -0.16283  -0.15830  -0.15478
 Alpha virt. eigenvalues --   -0.14655  -0.14282  -0.14187  -0.13375  -0.12699
 Alpha virt. eigenvalues --   -0.12615  -0.12406  -0.12162  -0.11793  -0.11633

 Mulliken charges:
               1
     1  Mo  -0.006438
     2  S    0.091775
     3  S   -0.010399
     4  S    0.268692
     5  S   -0.017569
     6  Mo  -0.322151
     7  S    0.029776
     8  S    0.228261
     9  Mo  -0.314812
    10  S   -0.099331
    11  S   -0.086099
    12  Mo   0.324055
    13  Mo   0.247653
    14  S   -0.030181
    15  S   -0.187560
    16  S   -0.016108
    17  S   -0.160671
    18  Mo   0.229095
    19  S   -0.212223
    20  S   -0.045238
    21  Mo   0.089471
 Sum of Mulliken charges =  -0.00000

 Dipole moment (field-independent basis, Debye):
    X=              2.9345    Y=             -1.3826    Z=              4.7130  Tot=              5.7215
 Quadrupole moment (field-independent basis, Debye-Ang):
   XX=           -361.6537   YY=           -351.5522   ZZ=           -240.2326
   XY=             14.7118   XZ=             43.7108   YZ=             -2.7173

  Exact polarizability:     943.845    -160.640     412.195     111.335     -67.742     544.638
 Approx polarizability:    2607.586    -260.044    1339.637     248.836    -201.256    1907.312

                      1                      2                      3
                      A                      A                      A
 Frequencies --     33.5198                35.5066                41.8621
 Red. masses --     42.5594                42.3544                44.0071
 Frc consts  --      0.0282                 0.0315                 0.0454
 IR Inten    --      0.1965                 0.2831                 0.3831

                      4                      5                      6
                      A                      A                      A
 Frequencies --     60.4216                64.4809                67.7954
 Red. masses --     37.8065                44.0616                49.1694
 Frc consts  --      0.0813                 0.1079                 0.1332
 IR Inten    --      0.3841                 0.6927                13.7583

                      7                      8                      9
                      A                      A                      A
 Frequencies --     77.9657                86.3322                90.8231
 Red. masses --     43.1786                35.6441                40.4908
 Frc consts  --      0.1546                 0.1565                 0.1968
 IR Inten    --      2.5742                 0.2067                 1.9228

                     10                     11                     12
                      A                      A                      A
 Frequencies --     93.7440               104.5227               107.5588
 Red. masses --     50.9987                39.3923                40.3633
 Frc consts  --      0.2641                 0.2536                 0.2751
 IR Inten    --      1.9667                 0.3827                 0.2878

                     13                     14                     15
                      A                      A                      A
 Frequencies --    113.8087               117.9914               125.9788
 Red. masses --     43.6402                37.4728                40.2166
 Frc consts  --      0.3330                 0.3074                 0.3761
 IR Inten    --      0.9009                 0.9247                 1.2836

                     16                     17                     18
                      A                      A                      A
 Frequencies --    133.7809               137.5029               139.6691
 Red. masses --     40.5954                42.3074                41.8657
 Frc consts  --      0.4281                 0.4713                 0.4812
 IR Inten    --      0.6241                 0.4466                 0.7351

                     19                     20                     21
                      A                      A                      A
 Frequencies --    143.5482               152.3861               157.4836
 Red. masses --     45.0299                40.5169                38.8268
 Frc consts  --      0.5467                 0.5543                 0.5674
 IR Inten    --      0.0369                 0.3343                 0.5625

                     22                     23                     24
                      A                      A                      A
 Frequencies --    167.0420               175.9913               179.6787
 Red. masses --     37.8812                47.2539                36.7878
 Frc consts  --      0.6228                 0.8623                 0.6998
 IR Inten    --      0.8003                 4.7460                 4.2113

                     25                     26                     27
                      A                      A                      A
 Frequencies --    186.0042               190.1388               200.6970
 Red. masses --     46.0206                53.3004                51.6393
 Frc consts  --      0.9381                 1.1353                 1.2255
 IR Inten    --      5.9172                 0.9312                 2.5809

                     28                     29                     30
                      A                      A                      A
 Frequencies --    209.4887               226.9998               227.7675
 Red. masses --     38.3548                35.1285                41.3215
 Frc consts  --      0.9917                 1.0665                 1.2630
 IR Inten    --      0.2766                 7.2207                 8.6619

                     31                     32                     33
                      A                      A                      A
 Frequencies --    239.0697               252.3345               263.3732
 Red. masses --     39.4014                40.6511                39.1544
 Frc consts  --      1.3268                 1.5250                 1.6002
 IR Inten    --     13.0679                12.1466                 2.4243

                     34                     35                     36
                      A                      A                      A
 Frequencies --    266.7496               283.5530               297.9109
 Red. masses --     40.9414                39.8898                37.9086
 Frc consts  --      1.7164                 1.8896                 1.9823
 IR Inten    --      0.6072                17.6226                 1.1386

                     37                     38                     39
                      A                      A                      A
 Frequencies --    299.9650               305.1582               319.4197
 Red. masses --     38.3159                37.7219                40.4110
 Frc consts  --      2.0313                 2.0696                 2.4293
 IR Inten    --     15.1011                 0.4471                 2.0527

                     40                     41                     42
                      A                      A                      A
 Frequencies --    325.6632               333.4801               340.1454
 Red. masses --     39.9159                41.1657                41.5204
 Frc consts  --      2.4942                 2.6973                 2.8304
 IR Inten    --      0.5376                 1.6995                 8.3761

                     43                     44                     45
                      A                      A                      A
 Frequencies --    353.1906               387.3585               394.2483
 Red. masses --     42.2681                37.3106                36.2781
 Frc consts  --      3.1066                 3.2984                 3.3223
 IR Inten    --      2.7765                56.0104                 7.2598

                     46                     47                     48
                      A                      A                      A
 Frequencies --    403.5825               413.0014               424.1296
 Red. masses --     36.6545                39.1570                37.4741
 Frc consts  --      3.5176                 3.9352                 3.9717
 IR Inten    --     18.2856                 5.0072                16.0328

                     49                     50                     51
                      A                      A                      A
 Frequencies --    425.7713               431.8684               437.5142
 Red. masses --     38.7693                38.7151                38.8094
 Frc consts  --      4.1409                 4.2544                 4.3769
 IR Inten    --     14.1619                 6.4782                33.6630

                     52                     53                     54
                      A                      A                      A
 Frequencies --    442.1936               449.8057               469.2282
 Red. masses --     39.3412                39.9085                38.8234
 Frc consts  --      4.5323                 4.7574                 5.0363
 IR Inten    --      8.2226                17.2580                 7.0704

                     55                     56                     57
                      A                      A                      A
 Frequencies --    554.8738               568.5721               574.7375
 Red. masses --     39.5023                39.5390                39.2221
 Frc consts  --      7.1657                 7.5309                 7.6334
 IR Inten    --    144.6745                91.8131               139.3049

 - Thermochemistry -
 -------------------
 Temperature   298.150 Kelvin.  Pressure   1.00000 Atm.
 Atom     1 has atomic number 42 and mass  97.90550

 Molecular mass:  1132.94751 amu.
 Principal axes and moments of inertia in atomic units:
                           1         2         3
     Eigenvalues --  ******************************
           X            0.90929  -0.36316   0.20323
           Y           -0.29467  -0.21702   0.93063
           Z            0.29387   0.90610   0.30435
 This molecule is an asymmetric top.
 Rotational symmetry number  1.
 Warning -- assumption of classical behavior for rotation
           may cause significant error
 Rotational temperatures (Kelvin)      0.00668     0.00186     0.00165
 Rotational constants (GHZ):           0.13911     0.03885     0.03432
 Zero-point vibrational energy      84380.9 (Joules/Mol)
                                   20.16753 (Kcal/Mol)
 Warning -- explicit consideration of  57 degrees of freedom as
           vibrations may cause significant error
 Vibrational temperatures:     48.23    51.09    60.23    86.93    92.77
          (Kelvin)             97.54   112.18   124.21   130.67   134.88
                              150.38   154.75   163.75   169.76   181.26
                              192.48   197.84   200.95   206.53   219.25
                              226.58   240.34   253.21   258.52   267.62
                              273.57   288.76   301.41   326.60   327.71
                              343.97   363.05   378.94   383.79   407.97
                              428.63   431.58   439.05   459.57   468.56
                              479.80   489.39   508.16   557.32   567.24
                              580.67   594.22   610.23   612.59   621.36
                              629.49   636.22   647.17   675.11   798.34
                              818.05   826.92

 Zero-point correction=                           0.032139 (Hartree/Particle)
 Thermal correction to Energy=                    0.064785
 Thermal correction to Enthalpy=                  0.065729
 Thermal correction to Gibbs Free Energy=        -0.034949
 Sum of electronic and zero-point Energies=          -6048.090432
 Sum of electronic and thermal Energies=             -6048.057786
 Sum of electronic and thermal Enthalpies=           -6048.056842
 Sum of electronic and thermal Free Energies=        -6048.157519

                     E (Thermal)             CV                S
                      KCal/Mol        Cal/Mol-Kelvin    Cal/Mol-Kelvin
 Total                   40.653            104.036            211.894
 Electronic               0.000              0.000              0.000
 Translational            0.889              2.981             46.954
 Rotational               0.889              2.981             38.691
 Vibrational             38.876             98.075            126.249
 Vibration     1          0.594              1.983              5.609
 Vibration     2          0.594              1.982              5.495
 Vibration     3          0.594              1.980              5.169
 Vibration     4          0.597              1.973              4.443
 Vibration     5          0.597              1.971              4.315
 Vibration     6          0.598              1.970              4.216
 Vibration     7          0.599              1.964              3.941
 Vibration     8          0.601              1.959              3.742
 Vibration     9          0.602              1.956              3.642
 Vibration    10          0.603              1.954              3.580
 Vibration    11          0.605              1.946              3.368
 Vibration    12          0.606              1.943              3.313
 Vibration    13          0.607              1.938              3.203
 Vibration    14          0.608              1.934              3.133
 Vibration    15          0.611              1.927              3.007
 Vibration    16          0.613              1.920              2.891
 Vibration    17          0.614              1.916              2.838
 Vibration    18          0.615              1.914              2.808
 Vibration    19          0.616              1.910              2.756
 Vibration    20          0.619              1.900              2.642
 Vibration    21          0.621              1.894              2.580
 Vibration    22          0.624              1.883              2.469
 Vibration    23          0.628              1.872              2.371
 Vibration    24          0.629              1.867              2.332
 Vibration    25          0.632              1.859              2.267
 Vibration    26          0.633              1.853              2.226
 Vibration    27          0.638              1.839              2.127
 Vibration    28          0.642              1.826              2.048
 Vibration    29          0.651              1.800              1.903
 Vibration    30          0.651              1.799              1.896
 Vibration    31          0.657              1.781              1.810
 Vibration    32          0.664              1.759              1.714
 Vibration    33          0.670              1.740              1.639
 Vibration    34          0.672              1.734              1.617
 Vibration    35          0.682              1.704              1.512
 Vibration    36          0.691              1.678              1.429
 Vibration    37          0.692              1.674              1.417
 Vibration    38          0.696              1.664              1.388
 Vibration    39          0.705              1.636              1.313
 Vibration    40          0.710              1.624              1.282
 Vibration    41          0.715              1.609              1.243
 Vibration    42          0.720              1.595              1.211
 Vibration    43          0.729              1.569              1.152
 Vibration    44          0.756              1.497              1.010
 Vibration    45          0.761              1.482              0.984
 Vibration    46          0.769              1.462              0.950
 Vibration    47          0.777              1.442              0.916
 Vibration    48          0.786              1.418              0.878
 Vibration    49          0.788              1.414              0.873
 Vibration    50          0.793              1.401              0.853
 Vibration    51          0.798              1.388              0.834
 Vibration    52          0.802              1.378              0.820
 Vibration    53          0.809              1.361              0.796
 Vibration    54          0.826              1.318              0.740
 Vibration    55          0.910              1.129              0.534
 Vibration    56          0.925              1.099              0.507
 Vibration    57          0.931              1.086              0.495

                           ! Non-Optimized Parameters !
 Normal termination of Gaussian 16 at Fri Dec  9 16:42:28 2022.
