 Gaussian 16, Revision C.01,
 Gaussian 16:  ES64L-G16RevC.01  3-Jul-2019

 ---------------------------------------
 # opt freq b3lyp/gen nosymm pseudo=read
 ---------------------------------------

 -------------------
 Title Card Required
 -------------------
 Symbolic Z-matrix:
 Charge =  0 Multiplicity = 1

 SCF Done:  E(RB3LYP) =  -6447.54252503     A.U. after   37 cycles
 SCF Done:  E(RB3LYP) =  -6447.54378825     A.U. after   23 cycles
 SCF Done:  E(RB3LYP) =  -6447.54448165     A.U. after   23 cycles
 SCF Done:  E(RB3LYP) =  -6447.54454596     A.U. after   21 cycles
 SCF Done:  E(RB3LYP) =  -6447.54477033     A.U. after   22 cycles
 SCF Done:  E(RB3LYP) =  -6447.54487818     A.U. after   22 cycles
 SCF Done:  E(RB3LYP) =  -6447.54507942     A.U. after   22 cycles
 SCF Done:  E(RB3LYP) =  -6447.54525557     A.U. after   23 cycles
 SCF Done:  E(RB3LYP) =  -6447.54521435     A.U. after   22 cycles
 SCF Done:  E(RB3LYP) =  -6447.54576839     A.U. after   23 cycles
 SCF Done:  E(RB3LYP) =  -6447.54631263     A.U. after   22 cycles
 SCF Done:  E(RB3LYP) =  -6447.54620320     A.U. after   23 cycles
 SCF Done:  E(RB3LYP) =  -6447.54635349     A.U. after   22 cycles
 SCF Done:  E(RB3LYP) =  -6447.54635827     A.U. after   21 cycles
 SCF Done:  E(RB3LYP) =  -6447.54635708     A.U. after   21 cycles
 SCF Done:  E(RB3LYP) =  -6447.54637301     A.U. after   21 cycles
 SCF Done:  E(RB3LYP) =  -6447.54637427     A.U. after   19 cycles
 SCF Done:  E(RB3LYP) =  -6447.54637502     A.U. after   17 cycles
 SCF Done:  E(RB3LYP) =  -6447.54637516     A.U. after   15 cycles
 Optimization completed.
    -- Stationary point found.
 Normal termination of Gaussian 16 at Mon Dec 12 10:23:46 2022.

 ------------------------------------------------------------------
 #N Geom=AllCheck Guess=TCheck SCRF=Check GenChk RB3LYP/ChkBas Freq
 ------------------------------------------------------------------

 Structure from the checkpoint file:  "/home/chesagar/scratch/Gau-125294.chk"
 -------------------
 Title Card Required
 -------------------
 Charge =  0 Multiplicity = 1

                          Input orientation:
 ---------------------------------------------------------------------
 Center     Atomic      Atomic             Coordinates (Angstroms)
 Number     Number       Type             X           Y           Z
 ---------------------------------------------------------------------
      1         42           0        0.398109    1.338977   11.947285
      2         16           0        1.251123    3.403357   12.615376
      3         16           0       -1.657047    1.433596   13.026055
      4         16           0       -0.382625    1.207439    9.720095
      5         16           0        2.213659   -0.249736   11.683006
      6         42           0       -2.058902    2.485738   10.951244
      7         16           0       -3.272569    2.097831    8.702744
      8         16           0       -1.446918    4.633776   11.177552
      9         42           0        0.321983    3.397998   10.210220
     10         16           0       -0.321046    4.390852    7.969402
     11         16           0        2.393965    2.730516    8.851457
     12         42           0        3.453530    1.325273   10.239130
     13         42           0       -2.573903    4.198232    7.798268
     14         16           0        4.583034    2.748653   11.678826
     15         16           0        4.956221    0.160234    9.300250
     16         16           0       -3.891124    5.738999    8.953886
     17         16           0       -3.181292    4.254822    5.784180
     18         42           0       -4.716259    3.681402    9.665114
     19         16           0       -6.707695    3.404625    9.014156
     20         16           0       -4.348251    3.183508   11.826361
     21         42           0        2.905005    1.706071   12.863142
     22         16           0        2.540516    0.537423   15.144552
     23          1           0        3.604384   -0.286911   15.306125
     24          1           0        1.684276   -0.482265   14.936203
 ---------------------------------------------------------------------

 SCF Done:  E(RB3LYP) =  -6447.54637516     A.U. after    1 cycles

 Alpha  occ. eigenvalues --  -88.96690 -88.91464 -88.91400 -88.91094 -88.90881
 Alpha  occ. eigenvalues --  -88.90214 -88.89561 -88.88395 -88.87792 -88.87727
 Alpha  occ. eigenvalues --  -88.87714 -88.87396 -88.87349 -88.87341 -88.87063
 Alpha  occ. eigenvalues --   -8.04308  -7.99037  -7.99016  -7.98741  -7.98439
 Alpha  occ. eigenvalues --   -7.97839  -7.97281  -7.96237  -7.95691  -7.95546
 Alpha  occ. eigenvalues --   -7.95532  -7.95265  -7.95163  -7.95099  -7.94995
 Alpha  occ. eigenvalues --   -6.00618  -6.00351  -5.99849  -5.95052  -5.95028
 Alpha  occ. eigenvalues --   -5.94997  -5.94994  -5.94921  -5.94903  -5.94775
 Alpha  occ. eigenvalues --   -5.94685  -5.94629  -5.94484  -5.94434  -5.94292
 Alpha  occ. eigenvalues --   -5.93844  -5.93807  -5.93746  -5.93307  -5.93228
 Alpha  occ. eigenvalues --   -5.93159  -5.92269  -5.92196  -5.92076  -5.91676
 Alpha  occ. eigenvalues --   -5.91660  -5.91600  -5.91593  -5.91524  -5.91492
 Alpha  occ. eigenvalues --   -5.91457  -5.91400  -5.91381  -5.91329  -5.91246
 Alpha  occ. eigenvalues --   -5.91231  -5.91172  -5.91120  -5.91074  -5.91025
 Alpha  occ. eigenvalues --   -5.90993  -5.90978  -5.90955  -5.90895  -5.90853
 Alpha  occ. eigenvalues --   -2.56453  -2.55705  -2.55612  -2.55126  -2.54960
 Alpha  occ. eigenvalues --   -2.54386  -2.52908  -1.60035  -1.59138  -1.58735
 Alpha  occ. eigenvalues --   -1.58605  -1.58448  -1.58387  -1.58219  -1.58129
 Alpha  occ. eigenvalues --   -1.57805  -1.57779  -1.57561  -1.57249  -1.56694
 Alpha  occ. eigenvalues --   -1.56613  -1.56560  -1.56460  -1.56337  -1.55774
 Alpha  occ. eigenvalues --   -1.55449  -1.54710  -1.54594  -0.83553  -0.75813
 Alpha  occ. eigenvalues --   -0.74250  -0.73915  -0.73446  -0.73074  -0.71917
 Alpha  occ. eigenvalues --   -0.71283  -0.70608  -0.70504  -0.69944  -0.69383
 Alpha  occ. eigenvalues --   -0.68929  -0.68633  -0.68329  -0.52948  -0.47024
 Alpha  occ. eigenvalues --   -0.43027  -0.42748  -0.42289  -0.41129  -0.41031
 Alpha  occ. eigenvalues --   -0.40533  -0.40143  -0.39932  -0.39634  -0.39197
 Alpha  occ. eigenvalues --   -0.38496  -0.38240  -0.37931  -0.37543  -0.37350
 Alpha  occ. eigenvalues --   -0.37157  -0.37002  -0.36814  -0.36443  -0.35858
 Alpha  occ. eigenvalues --   -0.35743  -0.35565  -0.35005  -0.34850  -0.34304
 Alpha  occ. eigenvalues --   -0.33876  -0.33827  -0.33688  -0.33578  -0.33215
 Alpha  occ. eigenvalues --   -0.32387  -0.32106  -0.31800  -0.31481  -0.30729
 Alpha  occ. eigenvalues --   -0.30247  -0.29966  -0.29437  -0.29094  -0.29043
 Alpha  occ. eigenvalues --   -0.28571  -0.27897  -0.27666  -0.26903  -0.26406
 Alpha  occ. eigenvalues --   -0.25933  -0.25073  -0.24963  -0.24231  -0.21848
 Alpha virt. eigenvalues --   -0.16951  -0.16235  -0.15301  -0.15075  -0.14751
 Alpha virt. eigenvalues --   -0.14077  -0.13536  -0.13086  -0.12409  -0.12017
 Alpha virt. eigenvalues --   -0.11967  -0.11666  -0.11282  -0.11104  -0.10884

 Mulliken charges:
               1
     1  Mo  -0.031855
     2  S    0.133209
     3  S   -0.022356
     4  S    0.261795
     5  S   -0.011505
     6  Mo  -0.306671
     7  S    0.024401
     8  S    0.221930
     9  Mo  -0.325054
    10  S   -0.104219
    11  S   -0.096470
    12  Mo   0.335860
    13  Mo   0.253690
    14  S   -0.046742
    15  S   -0.203639
    16  S   -0.021863
    17  S   -0.171003
    18  Mo   0.226132
    19  S   -0.220508
    20  S   -0.053792
    21  Mo  -0.142579
    22  S    0.023498
    23  H    0.127875
    24  H    0.149865
 Sum of Mulliken charges =  -0.00000

 Dipole moment (field-independent basis, Debye):
    X=              4.5067    Y=             -4.2920    Z=              8.0993  Tot=             10.2142
 Quadrupole moment (field-independent basis, Debye-Ang):
   XX=           -379.0301   YY=           -372.3795   ZZ=           -168.8071
   XY=             12.0756   XZ=             69.1523   YZ=            -39.1655

  Exact polarizability:     942.143    -168.634     434.395     130.196    -100.559     609.870
 Approx polarizability:    2575.098    -257.129    1375.467     219.130    -251.255    1942.644

                      1                      2                      3
                      A                      A                      A
 Frequencies --     30.6290                33.5375                39.0957
 Red. masses --     24.3757                33.4349                13.6688
 Frc consts  --      0.0135                 0.0222                 0.0123
 IR Inten    --      0.6787                 1.0414                 1.4698

                      4                      5                      6
                      A                      A                      A
 Frequencies --     49.9735                58.9435                65.7956
 Red. masses --     10.4907                22.9602                24.9766
 Frc consts  --      0.0154                 0.0470                 0.0637
 IR Inten    --      5.6080                 2.1077                 0.3747

                      7                      8                      9
                      A                      A                      A
 Frequencies --     67.9351                72.7456                86.0491
 Red. masses --     20.9670                25.3803                11.2163
 Frc consts  --      0.0570                 0.0791                 0.0489
 IR Inten    --      6.3655                 7.0213                 3.5484

                     10                     11                     12
                      A                      A                      A
 Frequencies --     86.7628                91.6325                93.2390
 Red. masses --     33.1945                40.6296                49.9612
 Frc consts  --      0.1472                 0.2010                 0.2559
 IR Inten    --      0.1820                 1.6199                 1.9975

                     13                     14                     15
                      A                      A                      A
 Frequencies --    106.3384               110.6623               114.0391
 Red. masses --     20.7800                 9.5910                26.1632
 Frc consts  --      0.1384                 0.0692                 0.2005
 IR Inten    --      1.4578                 2.6789                 3.8299

                     16                     17                     18
                      A                      A                      A
 Frequencies --    118.7581               126.0414               132.6569
 Red. masses --     31.2647                 7.6149                 9.2815
 Frc consts  --      0.2598                 0.0713                 0.0962
 IR Inten    --      1.3204                 6.9792                 2.3799

                     19                     20                     21
                      A                      A                      A
 Frequencies --    137.9950               139.4454               145.1612
 Red. masses --     11.4233                25.6535                 5.4005
 Frc consts  --      0.1282                 0.2939                 0.0670
 IR Inten    --      2.5998                 0.3541                 3.9915

                     22                     23                     24
                      A                      A                      A
 Frequencies --    150.1163               154.6329               158.9875
 Red. masses --      4.7298                24.3112                28.8047
 Frc consts  --      0.0628                 0.3425                 0.4290
 IR Inten    --      3.7786                 0.2286                 0.0857

                     25                     26                     27
                      A                      A                      A
 Frequencies --    167.6832               174.0395               180.2411
 Red. masses --     11.7838                36.8734                31.9021
 Frc consts  --      0.1952                 0.6580                 0.6106
 IR Inten    --      1.2930                 3.0819                 2.5413

                     28                     29                     30
                      A                      A                      A
 Frequencies --    187.0921               192.2431               199.0780
 Red. masses --     44.4927                40.9766                49.9113
 Frc consts  --      0.9176                 0.8923                 1.1655
 IR Inten    --      1.0298                 5.9894                 2.5448

                     31                     32                     33
                      A                      A                      A
 Frequencies --    208.8927               214.7164               229.8168
 Red. masses --     28.7933                37.3667                34.0928
 Frc consts  --      0.7403                 1.0150                 1.0609
 IR Inten    --      1.5693                 0.4268                12.4628

                     34                     35                     36
                      A                      A                      A
 Frequencies --    240.5392               241.9941               261.1255
 Red. masses --     36.1506                44.6843                37.2163
 Frc consts  --      1.2324                 1.5418                 1.4951
 IR Inten    --     23.4999                 1.4402                 0.4085

                     37                     38                     39
                      A                      A                      A
 Frequencies --    265.1255               278.2231               282.0554
 Red. masses --     40.5085                38.8366                39.7135
 Frc consts  --      1.6776                 1.7712                 1.8615
 IR Inten    --      2.5464                 0.8149                14.9722

                     40                     41                     42
                      A                      A                      A
 Frequencies --    298.8211               302.7774               308.0887
 Red. masses --     37.5433                37.2553                37.3610
 Frc consts  --      1.9752                 2.0123                 2.0894
 IR Inten    --      5.4914                 2.6404                 0.1009

                     43                     44                     45
                      A                      A                      A
 Frequencies --    321.2940               325.9093               334.9621
 Red. masses --     33.1352                38.0361                31.2979
 Frc consts  --      2.0153                 2.3803                 2.0690
 IR Inten    --      4.4766                 1.5393                 3.6347

                     46                     47                     48
                      A                      A                      A
 Frequencies --    340.0478               352.1812               390.2850
 Red. masses --     41.4084                36.2635                22.9549
 Frc consts  --      2.8211                 2.6500                 2.0601
 IR Inten    --      7.1069                 2.6261                28.8914

                     49                     50                     51
                      A                      A                      A
 Frequencies --    393.9050               404.4032               414.4685
 Red. masses --     25.9194                34.4175                26.3040
 Frc consts  --      2.3695                 3.3163                 2.6623
 IR Inten    --     25.1062                38.5526                 5.7452

                     52                     53                     54
                      A                      A                      A
 Frequencies --    420.7552               424.3104               427.8239
 Red. masses --      7.7215                28.1813                10.5261
 Frc consts  --      0.8054                 2.9894                 1.1351
 IR Inten    --     29.9314                14.8015                19.9935

                     55                     56                     57
                      A                      A                      A
 Frequencies --    432.6541               441.8776               449.8666
 Red. masses --     19.7078                30.7989                38.2921
 Frc consts  --      2.1735                 3.5431                 4.5659
 IR Inten    --     20.3581                 9.5402                15.9032

                     58                     59                     60
                      A                      A                      A
 Frequencies --    457.5079               469.9389               554.3850
 Red. masses --      1.4845                37.0312                36.2925
 Frc consts  --      0.1831                 4.8184                 6.5719
 IR Inten    --      2.3988                 7.0292               144.7137

                     61                     62                     63
                      A                      A                      A
 Frequencies --    566.1270               567.1958               573.3162
 Red. masses --      1.0769                32.6444                38.6234
 Frc consts  --      0.2034                 6.1876                 7.4798
 IR Inten    --      1.9140                92.7333               147.5193

                     64                     65                     66
                      A                      A                      A
 Frequencies --   1216.0977              2610.7761              2691.9641
 Red. masses --      1.0383                 1.0370                 1.0382
 Frc consts  --      0.9048                 4.1645                 4.4327
 IR Inten    --     49.1994                33.0566                 4.1714

 - Thermochemistry -
 -------------------
 Temperature   298.150 Kelvin.  Pressure   1.00000 Atm.
 Atom     1 has atomic number 42 and mass  97.90550

 Molecular mass:  1166.93523 amu.
 Principal axes and moments of inertia in atomic units:
                           1         2         3
     Eigenvalues --  ******************************
           X            0.87954  -0.43128   0.20103
           Y           -0.31564  -0.21267   0.92474
           Z            0.35607   0.87680   0.32318
 This molecule is an asymmetric top.
 Rotational symmetry number  1.
 Warning -- assumption of classical behavior for rotation
           may cause significant error
 Rotational temperatures (Kelvin)      0.00594     0.00177     0.00152
 Rotational constants (GHZ):           0.12382     0.03678     0.03175
 Zero-point vibrational energy     132700.4 (Joules/Mol)
                                   31.71616 (Kcal/Mol)
 Warning -- explicit consideration of  63 degrees of freedom as
           vibrations may cause significant error
 Vibrational temperatures:     44.07    48.25    56.25    71.90    84.81
          (Kelvin)             94.67    97.74   104.66   123.81   124.83
                              131.84   134.15   153.00   159.22   164.08
                              170.87   181.35   190.86   198.54   200.63
                              208.85   215.98   222.48   228.75   241.26
                              250.40   259.33   269.18   276.59   286.43
                              300.55   308.93   330.66   346.08   348.18
                              375.70   381.46   400.30   405.81   429.94
                              435.63   443.27   462.27   468.91   481.94
                              489.25   506.71   561.53   566.74   581.85
                              596.33   605.37   610.49   615.54   622.49
                              635.76   647.26   658.25   676.14   797.64
                              814.53   816.07   824.87  1749.69  3756.32
                             3873.14

 Zero-point correction=                           0.050543 (Hartree/Particle)
 Thermal correction to Energy=                    0.086368
 Thermal correction to Enthalpy=                  0.087313
 Thermal correction to Gibbs Free Energy=        -0.020489
 Sum of electronic and zero-point Energies=          -6447.495832
 Sum of electronic and thermal Energies=             -6447.460007
 Sum of electronic and thermal Enthalpies=           -6447.459063
 Sum of electronic and thermal Free Energies=        -6447.566864

                     E (Thermal)             CV                S
                      KCal/Mol        Cal/Mol-Kelvin    Cal/Mol-Kelvin
 Total                   54.197            114.277            226.888
 Electronic               0.000              0.000              0.000
 Translational            0.889              2.981             47.042
 Rotational               0.889              2.981             38.938
 Vibrational             52.420            108.315            140.908
 Vibration     1          0.594              1.984              5.788
 Vibration     2          0.594              1.983              5.608
 Vibration     3          0.594              1.981              5.304
 Vibration     4          0.595              1.978              4.818
 Vibration     5          0.596              1.974              4.492
 Vibration     6          0.597              1.971              4.275
 Vibration     7          0.598              1.970              4.212
 Vibration     8          0.599              1.967              4.078
 Vibration     9          0.601              1.959              3.748
 Vibration    10          0.601              1.958              3.732
 Vibration    11          0.602              1.955              3.625
 Vibration    12          0.602              1.954              3.591
 Vibration    13          0.605              1.944              3.335
 Vibration    14          0.606              1.941              3.257
 Vibration    15          0.607              1.938              3.199
 Vibration    16          0.609              1.934              3.120
 Vibration    17          0.611              1.927              3.006
 Vibration    18          0.613              1.921              2.907
 Vibration    19          0.614              1.915              2.831
 Vibration    20          0.615              1.914              2.811
 Vibration    21          0.617              1.908              2.735
 Vibration    22          0.618              1.903              2.671
 Vibration    23          0.620              1.898              2.614
 Vibration    24          0.621              1.893              2.562
 Vibration    25          0.624              1.882              2.461
 Vibration    26          0.627              1.874              2.391
 Vibration    27          0.629              1.867              2.326
 Vibration    28          0.632              1.858              2.256
 Vibration    29          0.634              1.851              2.206
 Vibration    30          0.637              1.841              2.142
 Vibration    31          0.642              1.827              2.053
 Vibration    32          0.645              1.819              2.003
 Vibration    33          0.652              1.795              1.880
 Vibration    34          0.658              1.778              1.799
 Vibration    35          0.658              1.776              1.788
 Vibration    36          0.669              1.744              1.654
 Vibration    37          0.671              1.737              1.628
 Vibration    38          0.679              1.714              1.545
 Vibration    39          0.681              1.707              1.521
 Vibration    40          0.692              1.676              1.423
 Vibration    41          0.694              1.668              1.402
 Vibration    42          0.698              1.658              1.373
 Vibration    43          0.707              1.633              1.304
 Vibration    44          0.710              1.624              1.280
 Vibration    45          0.716              1.606              1.236
 Vibration    46          0.720              1.595              1.212
 Vibration    47          0.729              1.571              1.156
 Vibration    48          0.758              1.491              0.999
 Vibration    49          0.761              1.483              0.985
 Vibration    50          0.770              1.461              0.947
 Vibration    51          0.778              1.439              0.911
 Vibration    52          0.783              1.425              0.889
 Vibration    53          0.786              1.417              0.877
 Vibration    54          0.789              1.410              0.866
 Vibration    55          0.794              1.399              0.850
 Vibration    56          0.802              1.379              0.821
 Vibration    57          0.809              1.361              0.796
 Vibration    58          0.816              1.344              0.773
 Vibration    59          0.827              1.317              0.738
 Vibration    60          0.910              1.130              0.535
 Vibration    61          0.922              1.105              0.512
 Vibration    62          0.923              1.102              0.510
 Vibration    63          0.930              1.089              0.498

                           ! Non-Optimized Parameters !
 Normal termination of Gaussian 16 at Mon Dec 12 10:28:50 2022.
