 Gaussian 16, Revision C.01,
 Gaussian 16:  ES64L-G16RevC.01  3-Jul-2019

 ---------------------------------------
 # opt freq b3lyp/gen nosymm pseudo=read
 ---------------------------------------

 -------------------
 Title Card Required
 -------------------
 Symbolic Z-matrix:
 Charge =  0 Multiplicity = 1

 SCF Done:  E(RB3LYP) =  -6846.92848192     A.U. after   38 cycles
 SCF Done:  E(RB3LYP) =  -6846.94041816     A.U. after   27 cycles
 SCF Done:  E(RB3LYP) =  -6846.95025121     A.U. after   27 cycles
 SCF Done:  E(RB3LYP) =  -6846.95354934     A.U. after   24 cycles
 SCF Done:  E(RB3LYP) =  -6846.95659989     A.U. after   25 cycles
 SCF Done:  E(RB3LYP) =  -6846.95763134     A.U. after   24 cycles
 SCF Done:  E(RB3LYP) =  -6846.95900445     A.U. after   25 cycles
 SCF Done:  E(RB3LYP) =  -6846.95969317     A.U. after   24 cycles
 SCF Done:  E(RB3LYP) =  -6846.96015608     A.U. after   23 cycles
 SCF Done:  E(RB3LYP) =  -6846.96029454     A.U. after   22 cycles
 SCF Done:  E(RB3LYP) =  -6846.96100295     A.U. after   22 cycles
 SCF Done:  E(RB3LYP) =  -6846.96103045     A.U. after   21 cycles
 SCF Done:  E(RB3LYP) =  -6846.96104406     A.U. after   21 cycles
 SCF Done:  E(RB3LYP) =  -6846.96104607     A.U. after   18 cycles
 SCF Done:  E(RB3LYP) =  -6846.96104820     A.U. after   19 cycles
 SCF Done:  E(RB3LYP) =  -6846.96104913     A.U. after   14 cycles
 SCF Done:  E(RB3LYP) =  -6846.96104935     A.U. after   17 cycles
 SCF Done:  E(RB3LYP) =  -6846.96104947     A.U. after   17 cycles
 SCF Done:  E(RB3LYP) =  -6846.96104953     A.U. after   15 cycles
 Optimization completed.
    -- Stationary point found.
 Normal termination of Gaussian 16 at Fri Dec  9 17:04:34 2022.

 ------------------------------------------------------------------
 #N Geom=AllCheck Guess=TCheck SCRF=Check GenChk RB3LYP/ChkBas Freq
 ------------------------------------------------------------------

 Structure from the checkpoint file:  "/home/chesagar/scratch/Gau-177406.chk"
 -------------------
 Title Card Required
 -------------------
 Charge =  0 Multiplicity = 1

                          Input orientation:
 ---------------------------------------------------------------------
 Center     Atomic      Atomic             Coordinates (Angstroms)
 Number     Number       Type             X           Y           Z
 ---------------------------------------------------------------------
      1         42           0        0.540835    1.333468   11.913710
      2         16           0        1.327548    3.398958   12.613825
      3         16           0       -1.510070    1.316552   13.007543
      4         16           0       -0.264216    1.206644    9.695120
      5         16           0        2.363288   -0.200337   11.650809
      6         42           0       -1.957076    2.425081   10.967836
      7         16           0       -3.192498    2.034165    8.731173
      8         16           0       -1.388538    4.582243   11.208363
      9         42           0        0.396991    3.406574   10.185961
     10         16           0       -0.341922    4.428029    7.981518
     11         16           0        2.469226    2.887480    8.848943
     12         42           0        3.500870    1.388206   10.181054
     13         42           0       -2.586071    4.169344    7.842023
     14         16           0        4.737741    2.721538   11.579043
     15         16           0        4.932783    0.218090    9.142190
     16         16           0       -3.927280    5.650282    9.049568
     17         16           0       -3.232206    4.240039    5.839120
     18         42           0       -4.670223    3.556678    9.741333
     19         16           0       -6.663712    3.223083    9.119532
     20         16           0       -4.248582    3.046597   11.890265
     21         42           0        3.065857    1.774214   12.878098
     22         16           0        2.710580    0.278052   15.031833
     23          1           0        2.044388   -0.794957   14.559322
     24          1           0        1.640462    0.750387   15.706449
     25         16           0        3.983006    3.425973   14.781467
     26          1           0        4.840176    4.237272   14.126770
     27          1           0        3.015620    4.364829   14.854728
 ---------------------------------------------------------------------

 SCF Done:  E(RB3LYP) =  -6846.96104953     A.U. after    1 cycles

 Alpha  occ. eigenvalues --  -88.95957 -88.95508 -88.90843 -88.90659 -88.90464
 Alpha  occ. eigenvalues --  -88.90404 -88.89751 -88.88875 -88.88284 -88.87235
 Alpha  occ. eigenvalues --  -88.87181 -88.87055 -88.87037 -88.86779 -88.86710
 Alpha  occ. eigenvalues --  -88.86425  -8.03579  -8.03163  -7.98390  -7.98295
 Alpha  occ. eigenvalues --   -7.98110  -7.97886  -7.97362  -7.96592  -7.96089
 Alpha  occ. eigenvalues --   -7.95052  -7.95034  -7.94948  -7.94936  -7.94547
 Alpha  occ. eigenvalues --   -7.94470  -7.94357  -5.99896  -5.99622  -5.99475
 Alpha  occ. eigenvalues --   -5.99209  -5.99115  -5.98693  -5.94406  -5.94361
 Alpha  occ. eigenvalues --   -5.94305  -5.94282  -5.94256  -5.94182  -5.94146
 Alpha  occ. eigenvalues --   -5.94054  -5.93996  -5.93951  -5.93877  -5.93741
 Alpha  occ. eigenvalues --   -5.93368  -5.93328  -5.93277  -5.92615  -5.92544
 Alpha  occ. eigenvalues --   -5.92473  -5.92134  -5.92018  -5.91955  -5.91120
 Alpha  occ. eigenvalues --   -5.91021  -5.91001  -5.90995  -5.90985  -5.90979
 Alpha  occ. eigenvalues --   -5.90930  -5.90895  -5.90883  -5.90867  -5.90788
 Alpha  occ. eigenvalues --   -5.90725  -5.90612  -5.90543  -5.90507  -5.90445
 Alpha  occ. eigenvalues --   -5.90378  -5.90341  -5.90318  -5.90266  -5.90214
 Alpha  occ. eigenvalues --   -2.55690  -2.55314  -2.54911  -2.54487  -2.54334
 Alpha  occ. eigenvalues --   -2.53741  -2.52182  -1.59262  -1.58401  -1.58336
 Alpha  occ. eigenvalues --   -1.57837  -1.57807  -1.57747  -1.57649  -1.57567
 Alpha  occ. eigenvalues --   -1.57171  -1.57031  -1.56967  -1.56756  -1.56059
 Alpha  occ. eigenvalues --   -1.55973  -1.55922  -1.55763  -1.55696  -1.55015
 Alpha  occ. eigenvalues --   -1.54530  -1.54198  -1.53921  -0.83076  -0.82421
 Alpha  occ. eigenvalues --   -0.75174  -0.73629  -0.73299  -0.72886  -0.72451
 Alpha  occ. eigenvalues --   -0.71367  -0.71053  -0.70005  -0.69985  -0.69422
 Alpha  occ. eigenvalues --   -0.68790  -0.68361  -0.68252  -0.67715  -0.52681
 Alpha  occ. eigenvalues --   -0.51997  -0.47551  -0.44187  -0.42475  -0.42126
 Alpha  occ. eigenvalues --   -0.41672  -0.40599  -0.40437  -0.40041  -0.39864
 Alpha  occ. eigenvalues --   -0.39472  -0.39106  -0.38681  -0.38084  -0.37621
 Alpha  occ. eigenvalues --   -0.37603  -0.37173  -0.36778  -0.36675  -0.36429
 Alpha  occ. eigenvalues --   -0.36275  -0.35921  -0.35485  -0.35358  -0.34951
 Alpha  occ. eigenvalues --   -0.34629  -0.34226  -0.34075  -0.33819  -0.33402
 Alpha  occ. eigenvalues --   -0.33220  -0.33141  -0.33010  -0.32512  -0.31813
 Alpha  occ. eigenvalues --   -0.31533  -0.31275  -0.30859  -0.30208  -0.29715
 Alpha  occ. eigenvalues --   -0.29360  -0.28951  -0.28603  -0.28468  -0.27919
 Alpha  occ. eigenvalues --   -0.27269  -0.27005  -0.26246  -0.25685  -0.25286
 Alpha  occ. eigenvalues --   -0.24524  -0.24367  -0.23569  -0.20961
 Alpha virt. eigenvalues --   -0.16411  -0.15679  -0.14707  -0.14466  -0.13830
 Alpha virt. eigenvalues --   -0.13020  -0.12571  -0.12083  -0.11825  -0.11544
 Alpha virt. eigenvalues --   -0.11355  -0.10863  -0.10611  -0.10385  -0.10058

 Mulliken charges:
               1
     1  Mo  -0.042439
     2  S    0.107975
     3  S   -0.042600
     4  S    0.257422
     5  S   -0.042561
     6  Mo  -0.290013
     7  S    0.021380
     8  S    0.207061
     9  Mo  -0.316260
    10  S   -0.111783
    11  S   -0.089248
    12  Mo   0.332264
    13  Mo   0.257952
    14  S   -0.066621
    15  S   -0.200615
    16  S   -0.028288
    17  S   -0.179907
    18  Mo   0.224026
    19  S   -0.228567
    20  S   -0.062696
    21  Mo  -0.336923
    22  S    0.046034
    23  H    0.142331
    24  H    0.135447
    25  S    0.022827
    26  H    0.144535
    27  H    0.139267
 Sum of Mulliken charges =  -0.00000

 Dipole moment (field-independent basis, Debye):
    X=              6.2643    Y=             -1.6098    Z=             10.3425  Tot=             12.1984
 Quadrupole moment (field-independent basis, Debye-Ang):
   XX=           -395.1197   YY=           -373.5973   ZZ=           -129.2576
   XY=             30.5150   XZ=             89.2804   YZ=              9.5699

  Exact polarizability:     979.359    -142.123     448.578     156.750     -76.729     654.983
 Approx polarizability:    2680.676    -223.091    1420.903     264.531    -219.181    2026.184

                      1                      2                      3
                      A                      A                      A
 Frequencies --     19.8809                28.5831                31.4287
 Red. masses --      9.6668                20.3823                29.3767
 Frc consts  --      0.0023                 0.0098                 0.0171
 IR Inten    --      7.3859                 0.6880                 1.2073

                      4                      5                      6
                      A                      A                      A
 Frequencies --     41.7921                53.6641                58.0803
 Red. masses --     30.1449                11.7854                 1.7184
 Frc consts  --      0.0310                 0.0200                 0.0034
 IR Inten    --      3.9483                 3.8684                 4.3215

                      7                      8                      9
                      A                      A                      A
 Frequencies --     62.0963                68.8421                73.9707
 Red. masses --     11.0884                33.0103                10.5558
 Frc consts  --      0.0252                 0.0922                 0.0340
 IR Inten    --      0.1695                 1.2019                13.7279

                     10                     11                     12
                      A                      A                      A
 Frequencies --     82.9003                86.2370                90.9385
 Red. masses --     10.9587                18.3560                42.8250
 Frc consts  --      0.0444                 0.0804                 0.2087
 IR Inten    --      1.9659                 1.6131                 1.5273

                     13                     14                     15
                      A                      A                      A
 Frequencies --     94.7920                98.4789               107.4357
 Red. masses --     32.4700                15.3009                20.0110
 Frc consts  --      0.1719                 0.0874                 0.1361
 IR Inten    --      0.0601                 2.0407                 0.8470

                     16                     17                     18
                      A                      A                      A
 Frequencies --    111.8787               115.2006               115.9406
 Red. masses --      8.6415                 9.7660                 8.0469
 Frc consts  --      0.0637                 0.0764                 0.0637
 IR Inten    --      5.4085                 3.4364                 1.0858

                     19                     20                     21
                      A                      A                      A
 Frequencies --    119.3665               131.1213               134.0279
 Red. masses --     10.3346                25.9609                12.0238
 Frc consts  --      0.0868                 0.2630                 0.1273
 IR Inten    --      3.6201                 1.5316                 2.8231

                     22                     23                     24
                      A                      A                      A
 Frequencies --    139.3450               141.2991               144.4047
 Red. masses --      8.2898                 4.0547                 3.7762
 Frc consts  --      0.0948                 0.0477                 0.0464
 IR Inten    --      1.8760                11.5031                 5.3679

                     25                     26                     27
                      A                      A                      A
 Frequencies --    152.0042               155.1877               160.7348
 Red. masses --      8.9808                24.5617                12.9217
 Frc consts  --      0.1223                 0.3485                 0.1967
 IR Inten    --      2.2651                 0.2277                 0.5828

                     28                     29                     30
                      A                      A                      A
 Frequencies --    164.5590               170.7950               175.5829
 Red. masses --     31.6802                20.3857                32.8913
 Frc consts  --      0.5055                 0.3504                 0.5974
 IR Inten    --      0.9746                 0.0252                 0.4633

                     31                     32                     33
                      A                      A                      A
 Frequencies --    179.8330               187.1753               190.6071
 Red. masses --     35.3002                39.6656                31.8984
 Frc consts  --      0.6726                 0.8188                 0.6828
 IR Inten    --      2.4010                 0.4830                 2.8953

                     34                     35                     36
                      A                      A                      A
 Frequencies --    193.4171               207.4161               215.1017
 Red. masses --     42.2415                33.5063                37.1787
 Frc consts  --      0.9311                 0.8493                 1.0135
 IR Inten    --      0.7957                 2.3138                 0.5952

                     37                     38                     39
                      A                      A                      A
 Frequencies --    230.8477               239.3645               242.5634
 Red. masses --     35.0890                41.1291                34.5408
 Frc consts  --      1.1017                 1.3884                 1.1974
 IR Inten    --      5.5506                 2.6902                28.7196

                     40                     41                     42
                      A                      A                      A
 Frequencies --    262.1876               264.7209               279.3331
 Red. masses --     40.1953                36.3583                38.4630
 Frc consts  --      1.6280                 1.5012                 1.7682
 IR Inten    --      1.9530                 9.5200                 7.7815

                     43                     44                     45
                      A                      A                      A
 Frequencies --    283.1049               298.7624               303.9626
 Red. masses --     33.1682                37.3882                36.6038
 Frc consts  --      1.5663                 1.9662                 1.9926
 IR Inten    --      2.1786                 4.8710                 0.6307

                     46                     47                     48
                      A                      A                      A
 Frequencies --    311.0130               325.9390               330.7716
 Red. masses --     33.7928                36.6928                31.2808
 Frc consts  --      1.9259                 2.2967                 2.0164
 IR Inten    --      0.4708                 4.4457                 1.5922

                     49                     50                     51
                      A                      A                      A
 Frequencies --    339.4734               340.9074               353.6804
 Red. masses --     41.4639                33.2835                39.7629
 Frc consts  --      2.8153                 2.2790                 2.9306
 IR Inten    --      9.2669                12.0100                 4.0318

                     52                     53                     54
                      A                      A                      A
 Frequencies --    386.7978               394.3080               405.1860
 Red. masses --     21.9139                32.9628                35.2592
 Frc consts  --      1.9317                 3.0196                 3.4106
 IR Inten    --      8.7387                45.2513                64.2976

                     55                     56                     57
                      A                      A                      A
 Frequencies --    415.5721               419.3805               423.2678
 Red. masses --     39.0497                23.1769                32.5589
 Frc consts  --      3.9734                 2.4017                 3.4368
 IR Inten    --     16.0147                15.2584                 6.8194

                     58                     59                     60
                      A                      A                      A
 Frequencies --    430.3275               434.4592               441.1983
 Red. masses --     18.8584                 8.7495                19.1992
 Frc consts  --      2.0576                 0.9730                 2.2019
 IR Inten    --      6.0999                26.6353                14.7337

                     61                     62                     63
                      A                      A                      A
 Frequencies --    449.0273               454.8435               468.5550
 Red. masses --     36.8697                 1.2137                25.0017
 Frc consts  --      4.3799                 0.1479                 3.2340
 IR Inten    --     19.9174                 7.1018                 9.7463

                     64                     65                     66
                      A                      A                      A
 Frequencies --    481.0482               522.8098               540.6886
 Red. masses --      1.1360                 1.0727                 1.0555
 Frc consts  --      0.1549                 0.1727                 0.1818
 IR Inten    --      9.1322                38.4135                41.9977

                     67                     68                     69
                      A                      A                      A
 Frequencies --    552.8766               565.6493               572.0517
 Red. masses --     36.7714                39.4611                38.9012
 Frc consts  --      6.6224                 7.4390                 7.5004
 IR Inten    --    145.7292                96.1074               150.3300

                     70                     71                     72
                      A                      A                      A
 Frequencies --   1215.9783              1221.7945              2658.4352
 Red. masses --      1.0391                 1.0385                 1.0369
 Frc consts  --      0.9053                 0.9134                 4.3176
 IR Inten    --      7.8986                50.7318                21.8733

                     73                     74                     75
                      A                      A                      A
 Frequencies --   2663.8701              2675.5767              2687.1905
 Red. masses --      1.0349                 1.0406                 1.0388
 Frc consts  --      4.3269                 4.3892                 4.4198
 IR Inten    --     26.2428                 5.0532                 2.3098

 - Thermochemistry -
 -------------------
 Temperature   298.150 Kelvin.  Pressure   1.00000 Atm.
 Atom     1 has atomic number 42 and mass  97.90550

 Molecular mass:  1200.92295 amu.
 Principal axes and moments of inertia in atomic units:
                           1         2         3
     Eigenvalues --  ******************************
           X            0.88300  -0.43343   0.18013
           Y           -0.27042  -0.15609   0.95001
           Z            0.38364   0.88757   0.25503
 This molecule is an asymmetric top.
 Rotational symmetry number  1.
 Warning -- assumption of classical behavior for rotation
           may cause significant error
 Rotational temperatures (Kelvin)      0.00541     0.00163     0.00144
 Rotational constants (GHZ):           0.11278     0.03396     0.02994
 Zero-point vibrational energy     180586.1 (Joules/Mol)
                                   43.16112 (Kcal/Mol)
 Warning -- explicit consideration of  69 degrees of freedom as
           vibrations may cause significant error
 Vibrational temperatures:     28.60    41.12    45.22    60.13    77.21
          (Kelvin)             83.56    89.34    99.05   106.43   119.28
                              124.08   130.84   136.38   141.69   154.58
                              160.97   165.75   166.81   171.74   188.65
                              192.84   200.49   203.30   207.77   218.70
                              223.28   231.26   236.76   245.74   252.62
                              258.74   269.30   274.24   278.28   298.43
                              309.48   332.14   344.39   348.99   377.23
                              380.87   401.90   407.32   429.85   437.33
                              447.48   468.95   475.91   488.43   490.49
                              508.87   556.52   567.32   582.97   597.92
                              603.40   608.99   619.15   625.09   634.79
                              646.05   654.42   674.15   692.12   752.21
                              777.93   795.47   813.84   823.05  1749.52
                             1757.89  3824.90  3832.71  3849.56  3866.27

 Zero-point correction=                           0.068782 (Hartree/Particle)
 Thermal correction to Energy=                    0.108005
 Thermal correction to Enthalpy=                  0.108949
 Thermal correction to Gibbs Free Energy=        -0.007090
 Sum of electronic and zero-point Energies=          -6846.892268
 Sum of electronic and thermal Energies=             -6846.853044
 Sum of electronic and thermal Enthalpies=           -6846.852100
 Sum of electronic and thermal Free Energies=        -6846.968139

                     E (Thermal)             CV                S
                      KCal/Mol        Cal/Mol-Kelvin    Cal/Mol-Kelvin
 Total                   67.774            124.739            244.224
 Electronic               0.000              0.000              0.000
 Translational            0.889              2.981             47.127
 Rotational               0.889              2.981             39.169
 Vibrational             65.997            118.778            157.928
 Vibration     1          0.593              1.986              6.646
 Vibration     2          0.593              1.984              5.925
 Vibration     3          0.594              1.983              5.737
 Vibration     4          0.594              1.980              5.172
 Vibration     5          0.596              1.976              4.678
 Vibration     6          0.596              1.974              4.521
 Vibration     7          0.597              1.972              4.389
 Vibration     8          0.598              1.969              4.186
 Vibration     9          0.599              1.966              4.045
 Vibration    10          0.600              1.961              3.821
 Vibration    11          0.601              1.959              3.744
 Vibration    12          0.602              1.956              3.640
 Vibration    13          0.603              1.953              3.559
 Vibration    14          0.604              1.950              3.484
 Vibration    15          0.606              1.943              3.315
 Vibration    16          0.607              1.940              3.236
 Vibration    17          0.608              1.937              3.179
 Vibration    18          0.608              1.936              3.167
 Vibration    19          0.609              1.933              3.111
 Vibration    20          0.612              1.922              2.930
 Vibration    21          0.613              1.919              2.887
 Vibration    22          0.615              1.914              2.813
 Vibration    23          0.615              1.912              2.786
 Vibration    24          0.616              1.909              2.745
 Vibration    25          0.619              1.900              2.647
 Vibration    26          0.620              1.897              2.608
 Vibration    27          0.622              1.890              2.541
 Vibration    28          0.623              1.886              2.497
 Vibration    29          0.626              1.878              2.427
 Vibration    30          0.628              1.872              2.375
 Vibration    31          0.629              1.867              2.330
 Vibration    32          0.632              1.857              2.256
 Vibration    33          0.634              1.853              2.222
 Vibration    34          0.635              1.849              2.195
 Vibration    35          0.641              1.829              2.066
 Vibration    36          0.645              1.818              2.000
 Vibration    37          0.653              1.794              1.872
 Vibration    38          0.657              1.780              1.808
 Vibration    39          0.659              1.775              1.784
 Vibration    40          0.669              1.742              1.647
 Vibration    41          0.671              1.738              1.630
 Vibration    42          0.680              1.712              1.538
 Vibration    43          0.682              1.705              1.515
 Vibration    44          0.692              1.676              1.424
 Vibration    45          0.695              1.666              1.395
 Vibration    46          0.700              1.653              1.357
 Vibration    47          0.710              1.624              1.280
 Vibration    48          0.713              1.614              1.256
 Vibration    49          0.719              1.597              1.215
 Vibration    50          0.720              1.594              1.208
 Vibration    51          0.730              1.568              1.150
 Vibration    52          0.755              1.498              1.012
 Vibration    53          0.761              1.482              0.984
 Vibration    54          0.770              1.459              0.944
 Vibration    55          0.779              1.436              0.907
 Vibration    56          0.782              1.428              0.894
 Vibration    57          0.785              1.420              0.881
 Vibration    58          0.792              1.404              0.858
 Vibration    59          0.795              1.395              0.844
 Vibration    60          0.801              1.380              0.823
 Vibration    61          0.808              1.363              0.799
 Vibration    62          0.813              1.350              0.781
 Vibration    63          0.826              1.320              0.742
 Vibration    64          0.837              1.292              0.707
 Vibration    65          0.878              1.199              0.603
 Vibration    66          0.896              1.160              0.564
 Vibration    67          0.908              1.133              0.538
 Vibration    68          0.922              1.106              0.513
 Vibration    69          0.928              1.092              0.500

                           ! Non-Optimized Parameters !
 Normal termination of Gaussian 16 at Fri Dec  9 17:10:31 2022.
