 Gaussian 16, Revision C.01,
 Gaussian 16:  ES64L-G16RevC.01  3-Jul-2019

 -----------------------------------------------------------
 # opt=(calcfc,ts,noeigen) freq b3lyp/gen nosymm pseudo=read
 -----------------------------------------------------------

 -------------------
 Title Card Required
 -------------------
 Symbolic Z-matrix:
 Charge =  0 Multiplicity = 1

 SCF Done:  E(RB3LYP) =  -6846.85422084     A.U. after   40 cycles
 SCF Done:  E(RB3LYP) =  -6846.86990721     A.U. after   26 cycles
 SCF Done:  E(RB3LYP) =  -6846.88416190     A.U. after   26 cycles
 SCF Done:  E(RB3LYP) =  -6846.89586235     A.U. after   26 cycles
 SCF Done:  E(RB3LYP) =  -6846.90520195     A.U. after   26 cycles
 SCF Done:  E(RB3LYP) =  -6846.90803519     A.U. after   24 cycles
 SCF Done:  E(RB3LYP) =  -6846.90860411     A.U. after   24 cycles
 SCF Done:  E(RB3LYP) =  -6846.90974730     A.U. after   24 cycles
 SCF Done:  E(RB3LYP) =  -6846.91048393     A.U. after   24 cycles
 SCF Done:  E(RB3LYP) =  -6846.91075843     A.U. after   23 cycles
 SCF Done:  E(RB3LYP) =  -6846.91367664     A.U. after   22 cycles
 SCF Done:  E(RB3LYP) =  -6846.91428032     A.U. after   22 cycles
 SCF Done:  E(RB3LYP) =  -6846.91392691     A.U. after   22 cycles
 SCF Done:  E(RB3LYP) =  -6846.91439235     A.U. after   22 cycles
 SCF Done:  E(RB3LYP) =  -6846.91440918     A.U. after   17 cycles
 SCF Done:  E(RB3LYP) =  -6846.91441380     A.U. after   18 cycles
 SCF Done:  E(RB3LYP) =  -6846.91441196     A.U. after   17 cycles
 SCF Done:  E(RB3LYP) =  -6846.91441219     A.U. after   15 cycles
 SCF Done:  E(RB3LYP) =  -6846.91441234     A.U. after   14 cycles
 Optimization completed.
    -- Stationary point found.
 Normal termination of Gaussian 16 at Fri Dec  9 18:43:36 2022.

 ------------------------------------------------------------------
 #N Geom=AllCheck Guess=TCheck SCRF=Check GenChk RB3LYP/ChkBas Freq
 ------------------------------------------------------------------

 Structure from the checkpoint file:  "/home/chesagar/scratch/Gau-21332.chk"
 -------------------
 Title Card Required
 -------------------
 Charge =  0 Multiplicity = 1

                          Input orientation:
 ---------------------------------------------------------------------
 Center     Atomic      Atomic             Coordinates (Angstroms)
 Number     Number       Type             X           Y           Z
 ---------------------------------------------------------------------
      1         42           0        0.107981    1.406303   11.962150
      2         16           0        1.030844    3.395029   12.822550
      3         16           0       -1.932398    1.484615   12.991893
      4         16           0       -0.389533    1.292308    9.679114
      5         16           0        1.891177   -0.093053   11.853892
      6         42           0       -2.191657    2.483584   10.840874
      7         16           0       -3.269608    2.050216    8.514937
      8         16           0       -1.521686    4.573136   11.134565
      9         42           0        0.463461    3.403289   10.298142
     10         16           0       -0.333551    4.300275    8.051536
     11         16           0        2.533248    3.111433    9.145661
     12         42           0        3.207851    1.372527   10.457890
     13         42           0       -2.577329    4.186996    7.718270
     14         16           0        4.634225    2.499382   11.849755
     15         16           0        4.377006    0.037812    9.302836
     16         16           0       -3.997421    5.678035    8.810464
     17         16           0       -3.044152    4.279666    5.665042
     18         42           0       -4.817497    3.584655    9.401767
     19         16           0       -6.758276    3.278010    8.615934
     20         16           0       -4.550495    3.075730   11.573134
     21         42           0        2.919166    1.938344   13.232660
     22         16           0        3.742624    0.278186   14.745011
     23          1           0        2.620899    0.046718   15.469008
     24          1           0        4.269254    1.420011   15.920217
     25         16           0        3.847366    3.559643   14.765808
     26          1           0        2.770917    3.847042   15.534761
     27          1           0        4.307713    2.387468   15.910756
 ---------------------------------------------------------------------

 SCF Done:  E(RB3LYP) =  -6846.91441234     A.U. after    1 cycles

 Alpha  occ. eigenvalues --  -88.95078 -88.94379 -88.91616 -88.91479 -88.91322
 Alpha  occ. eigenvalues --  -88.91243 -88.90281 -88.90179 -88.89073 -88.88745
 Alpha  occ. eigenvalues --  -88.88508 -88.87077 -88.86943 -88.86840 -88.86552
 Alpha  occ. eigenvalues --  -88.86182  -8.02696  -8.01935  -7.99385  -7.99013
 Alpha  occ. eigenvalues --   -7.98879  -7.98839  -7.97919  -7.97754  -7.96793
 Alpha  occ. eigenvalues --   -7.96500  -7.96389  -7.94922  -7.94840  -7.94589
 Alpha  occ. eigenvalues --   -7.94333  -7.94110  -5.98885  -5.98703  -5.98364
 Alpha  occ. eigenvalues --   -5.98123  -5.97999  -5.97564  -5.95393  -5.95302
 Alpha  occ. eigenvalues --   -5.95294  -5.95057  -5.94985  -5.94937  -5.94928
 Alpha  occ. eigenvalues --   -5.94911  -5.94842  -5.94801  -5.94702  -5.94688
 Alpha  occ. eigenvalues --   -5.93945  -5.93872  -5.93809  -5.93757  -5.93725
 Alpha  occ. eigenvalues --   -5.93655  -5.92808  -5.92735  -5.92690  -5.92578
 Alpha  occ. eigenvalues --   -5.92422  -5.92387  -5.92347  -5.92342  -5.92248
 Alpha  occ. eigenvalues --   -5.90922  -5.90898  -5.90897  -5.90781  -5.90734
 Alpha  occ. eigenvalues --   -5.90688  -5.90667  -5.90550  -5.90413  -5.90403
 Alpha  occ. eigenvalues --   -5.90307  -5.90128  -5.90099  -5.90075  -5.89960
 Alpha  occ. eigenvalues --   -2.56482  -2.55605  -2.55359  -2.54830  -2.54469
 Alpha  occ. eigenvalues --   -2.54357  -2.54228  -1.59654  -1.58971  -1.58929
 Alpha  occ. eigenvalues --   -1.58552  -1.58208  -1.58106  -1.57996  -1.57954
 Alpha  occ. eigenvalues --   -1.57786  -1.57664  -1.57503  -1.57139  -1.57034
 Alpha  occ. eigenvalues --   -1.56939  -1.56528  -1.56040  -1.56009  -1.55854
 Alpha  occ. eigenvalues --   -1.55738  -1.55628  -1.55540  -0.81368  -0.79143
 Alpha  occ. eigenvalues --   -0.75691  -0.74435  -0.74009  -0.73844  -0.73209
 Alpha  occ. eigenvalues --   -0.72436  -0.71517  -0.70965  -0.69872  -0.69723
 Alpha  occ. eigenvalues --   -0.69466  -0.68710  -0.68223  -0.67492  -0.54079
 Alpha  occ. eigenvalues --   -0.48141  -0.47694  -0.43051  -0.42598  -0.42029
 Alpha  occ. eigenvalues --   -0.41621  -0.40941  -0.40697  -0.40311  -0.39826
 Alpha  occ. eigenvalues --   -0.39610  -0.39303  -0.39102  -0.38806  -0.38544
 Alpha  occ. eigenvalues --   -0.38194  -0.38096  -0.37079  -0.36999  -0.36863
 Alpha  occ. eigenvalues --   -0.36524  -0.36498  -0.36106  -0.35987  -0.35732
 Alpha  occ. eigenvalues --   -0.35244  -0.34761  -0.34464  -0.34424  -0.33677
 Alpha  occ. eigenvalues --   -0.33456  -0.33176  -0.33074  -0.32697  -0.32407
 Alpha  occ. eigenvalues --   -0.32044  -0.31586  -0.31518  -0.30877  -0.30543
 Alpha  occ. eigenvalues --   -0.29933  -0.29606  -0.29314  -0.28973  -0.28580
 Alpha  occ. eigenvalues --   -0.27560  -0.27230  -0.27076  -0.26391  -0.25595
 Alpha  occ. eigenvalues --   -0.24945  -0.24042  -0.23822  -0.22168
 Alpha virt. eigenvalues --   -0.16999  -0.16443  -0.15576  -0.15261  -0.14727
 Alpha virt. eigenvalues --   -0.14354  -0.14096  -0.13215  -0.13037  -0.12907
 Alpha virt. eigenvalues --   -0.12103  -0.11669  -0.11303  -0.10934  -0.10487

 Mulliken charges:
               1
     1  Mo  -0.030114
     2  S    0.071494
     3  S   -0.010551
     4  S    0.272136
     5  S   -0.008263
     6  Mo  -0.217913
     7  S    0.021175
     8  S    0.177814
     9  Mo  -0.329712
    10  S   -0.097822
    11  S   -0.022140
    12  Mo   0.221451
    13  Mo   0.244041
    14  S    0.075945
    15  S   -0.177084
    16  S   -0.030755
    17  S   -0.180679
    18  Mo   0.238006
    19  S   -0.233322
    20  S   -0.071381
    21  Mo  -0.309341
    22  S    0.045346
    23  H    0.128386
    24  H    0.014923
    25  S    0.068943
    26  H    0.125022
    27  H    0.014395
 Sum of Mulliken charges =  -0.00000

 Dipole moment (field-independent basis, Debye):
    X=              7.0501    Y=             -2.6493    Z=              9.4032  Tot=             12.0475
 Quadrupole moment (field-independent basis, Debye-Ang):
   XX=           -396.7105   YY=           -387.2139   ZZ=           -148.9580
   XY=             25.6962   XZ=             90.8295   YZ=             -5.7766

  Exact polarizability:     986.722    -151.704     458.800     229.996     -82.676     730.641
 Approx polarizability:    2619.051    -319.051    1513.249     324.648    -197.000    2198.888

 ******    1 imaginary frequencies (negative Signs) ******

                      1                      2                      3
                      A                      A                      A
 Frequencies --  -1228.7725                28.5126                30.1016
 Red. masses --      1.0764                20.3740                21.4129
 Frc consts  --      0.9576                 0.0098                 0.0114
 IR Inten    --   7291.5877                 0.4936                 0.4456

                      4                      5                      6
                      A                      A                      A
 Frequencies --     37.6340                51.1323                59.4431
 Red. masses --     21.9778                15.5022                29.5136
 Frc consts  --      0.0183                 0.0239                 0.0614
 IR Inten    --      0.3774                 0.5602                 0.0854

                      7                      8                      9
                      A                      A                      A
 Frequencies --     62.2244                70.6813                81.0706
 Red. masses --     27.5782                21.4764                29.6368
 Frc consts  --      0.0629                 0.0632                 0.1148
 IR Inten    --      0.8870                 0.3922                 0.6295

                     10                     11                     12
                      A                      A                      A
 Frequencies --     84.4248                87.9945                91.0046
 Red. masses --     34.7155                41.4702                34.3004
 Frc consts  --      0.1458                 0.1892                 0.1674
 IR Inten    --      0.5517                 0.2511                 0.5110

                     13                     14                     15
                      A                      A                      A
 Frequencies --     91.5769               101.4695               103.6195
 Red. masses --     23.2946                21.4997                34.3773
 Frc consts  --      0.1151                 0.1304                 0.2175
 IR Inten    --      0.2139                 0.1768                 0.3290

                     16                     17                     18
                      A                      A                      A
 Frequencies --    111.1534               114.5580               115.5673
 Red. masses --     32.8846                31.8926                30.9651
 Frc consts  --      0.2394                 0.2466                 0.2437
 IR Inten    --      0.6834                 0.9880                 2.4680

                     19                     20                     21
                      A                      A                      A
 Frequencies --    124.5367               129.5990               136.9031
 Red. masses --     35.0811                34.0124                29.9592
 Frc consts  --      0.3206                 0.3366                 0.3308
 IR Inten    --      0.1541                 0.7104                 0.0678

                     22                     23                     24
                      A                      A                      A
 Frequencies --    141.5802               145.5242               154.6661
 Red. masses --     38.1896                38.1215                20.2970
 Frc consts  --      0.4510                 0.4757                 0.2861
 IR Inten    --      2.5742                 0.0346                 3.6996

                     25                     26                     27
                      A                      A                      A
 Frequencies --    159.9656               163.2024               175.0139
 Red. masses --     25.7516                27.8422                36.8125
 Frc consts  --      0.3882                 0.4369                 0.6643
 IR Inten    --      0.0421                 0.1512                 0.4064

                     28                     29                     30
                      A                      A                      A
 Frequencies --    178.6538               181.1808               187.3564
 Red. masses --     35.2432                41.4156                49.6092
 Frc consts  --      0.6627                 0.8010                 1.0260
 IR Inten    --      0.6306                 1.8182                 1.4034

                     31                     32                     33
                      A                      A                      A
 Frequencies --    197.7136               207.2039               217.3305
 Red. masses --     43.5896                39.5333                33.2890
 Frc consts  --      1.0039                 1.0000                 0.9264
 IR Inten    --      0.5896                 1.1304                 3.9950

                     34                     35                     36
                      A                      A                      A
 Frequencies --    224.5601               229.3398               248.4244
 Red. masses --     34.0119                34.6767                34.2120
 Frc consts  --      1.0105                 1.0746                 1.2440
 IR Inten    --      0.6564                 0.5170                21.2300

                     37                     38                     39
                      A                      A                      A
 Frequencies --    266.6722               271.4444               284.1964
 Red. masses --     26.1211                 1.1616                28.6198
 Frc consts  --      1.0945                 0.0504                 1.3619
 IR Inten    --      4.8030                 2.9440                 2.3372

                     40                     41                     42
                      A                      A                      A
 Frequencies --    286.5208               295.3345               300.0874
 Red. masses --     35.8532                28.8939                26.5974
 Frc consts  --      1.7342                 1.4849                 1.4112
 IR Inten    --      5.9897                 0.7382                 1.7333

                     43                     44                     45
                      A                      A                      A
 Frequencies --    303.4107               315.2064               320.3978
 Red. masses --     25.4871                18.8095                35.8215
 Frc consts  --      1.3824                 1.1011                 2.1666
 IR Inten    --      5.5068                14.7389                 0.1543

                     46                     47                     48
                      A                      A                      A
 Frequencies --    324.4897               328.2239               335.7446
 Red. masses --     30.6018                22.0342                14.1168
 Frc consts  --      1.8984                 1.3986                 0.9376
 IR Inten    --      0.2872                 9.3524                87.5389

                     49                     50                     51
                      A                      A                      A
 Frequencies --    342.6566               354.1059               358.0163
 Red. masses --     42.0059                40.2991                20.1554
 Frc consts  --      2.9059                 2.9772                 1.5221
 IR Inten    --      7.8725                 0.2211                 4.4039

                     52                     53                     54
                      A                      A                      A
 Frequencies --    380.4220               390.5923               401.3149
 Red. masses --     32.0072                35.2339                35.6436
 Frc consts  --      2.7292                 3.1671                 3.3822
 IR Inten    --      1.9290                43.5464                 8.9173

                     55                     56                     57
                      A                      A                      A
 Frequencies --    408.1225               412.4515               431.0871
 Red. masses --     36.4425                33.6180                37.6740
 Frc consts  --      3.5763                 3.3695                 4.1250
 IR Inten    --     10.9084                 5.4775                 5.0584

                     58                     59                     60
                      A                      A                      A
 Frequencies --    436.0411               445.2370               449.2970
 Red. masses --     35.1694                38.0356                12.2172
 Frc consts  --      3.9398                 4.4424                 1.4531
 IR Inten    --     13.0461                36.4793                 7.9973

                     61                     62                     63
                      A                      A                      A
 Frequencies --    454.4036               465.7331               478.2219
 Red. masses --     30.7317                30.6053                 1.1538
 Frc consts  --      3.7387                 3.9113                 0.1555
 IR Inten    --     26.4899                10.3728                17.5824

                     64                     65                     66
                      A                      A                      A
 Frequencies --    555.7601               564.3628               569.1793
 Red. masses --     35.2422                38.3945                32.1465
 Frc consts  --      6.4134                 7.2050                 6.1360
 IR Inten    --    131.0515                89.3761               173.7239

                     67                     68                     69
                      A                      A                      A
 Frequencies --    572.7991               633.8806               825.0481
 Red. masses --      1.1241                 1.0652                 1.0313
 Frc consts  --      0.2173                 0.2522                 0.4136
 IR Inten    --     17.7782                13.8214                30.5797

                     70                     71                     72
                      A                      A                      A
 Frequencies --   1025.6624              1074.7233              1213.5097
 Red. masses --      1.0472                 1.0230                 1.0128
 Frc consts  --      0.6491                 0.6962                 0.8788
 IR Inten    --     30.1252                48.9798                 4.1021

                     73                     74                     75
                      A                      A                      A
 Frequencies --   1522.8239              2634.0709              2642.8645
 Red. masses --      1.0275                 1.0381                 1.0384
 Frc consts  --      1.4039                 4.2436                 4.2732
 IR Inten    --    234.0512                 1.4979                 1.9490

 - Thermochemistry -
 -------------------
 Temperature   298.150 Kelvin.  Pressure   1.00000 Atm.
 Atom     1 has atomic number 42 and mass  97.90550

 Molecular mass:  1200.92295 amu.
 Principal axes and moments of inertia in atomic units:
                           1         2         3
     Eigenvalues --  ******************************
           X            0.86155  -0.47995   0.16545
           Y           -0.25795  -0.13316   0.95694
           Z            0.43725   0.86713   0.23853
 This molecule is an asymmetric top.
 Rotational symmetry number  1.
 Warning -- assumption of classical behavior for rotation
           may cause significant error
 Rotational temperatures (Kelvin)      0.00571     0.00157     0.00142
 Rotational constants (GHZ):           0.11898     0.03278     0.02948
    1 imaginary frequencies ignored.
 Zero-point vibrational energy     168667.7 (Joules/Mol)
                                   40.31255 (Kcal/Mol)
 Warning -- explicit consideration of  66 degrees of freedom as
           vibrations may cause significant error
 Vibrational temperatures:     41.02    43.31    54.15    73.57    85.53
          (Kelvin)             89.53   101.69   116.64   121.47   126.60
                              130.94   131.76   145.99   149.09   159.92
                              164.82   166.28   179.18   186.46   196.97
                              203.70   209.38   222.53   230.15   234.81
                              251.81   257.04   260.68   269.56   284.47
                              298.12   312.69   323.09   329.97   357.43
                              383.68   390.55   408.90   412.24   424.92
                              431.76   436.54   453.51   460.98   466.87
                              472.24   483.06   493.01   509.48   515.11
                              547.34   561.98   577.40   587.20   593.43
                              620.24   627.37   640.60   646.44   653.79
                              670.09   688.05   799.61   811.99   818.92
                              824.13   912.01  1187.06  1475.70  1546.29
                             1745.97  2191.00  3789.84  3802.49

 Zero-point correction=                           0.064242 (Hartree/Particle)
 Thermal correction to Energy=                    0.101594
 Thermal correction to Enthalpy=                  0.102539
 Thermal correction to Gibbs Free Energy=        -0.008122
 Sum of electronic and zero-point Energies=          -6846.850170
 Sum of electronic and thermal Energies=             -6846.812818
 Sum of electronic and thermal Enthalpies=           -6846.811874
 Sum of electronic and thermal Free Energies=        -6846.922534

                     E (Thermal)             CV                S
                      KCal/Mol        Cal/Mol-Kelvin    Cal/Mol-Kelvin
 Total                   63.751            121.395            232.905
 Electronic               0.000              0.000              0.000
 Translational            0.889              2.981             47.127
 Rotational               0.889              2.981             39.166
 Vibrational             61.974            115.433            146.611
 Vibration     1          0.593              1.984              5.930
 Vibration     2          0.594              1.984              5.823
 Vibration     3          0.594              1.982              5.380
 Vibration     4          0.595              1.977              4.773
 Vibration     5          0.597              1.974              4.476
 Vibration     6          0.597              1.972              4.385
 Vibration     7          0.598              1.968              4.134
 Vibration     8          0.600              1.962              3.865
 Vibration     9          0.601              1.960              3.785
 Vibration    10          0.601              1.958              3.704
 Vibration    11          0.602              1.956              3.638
 Vibration    12          0.602              1.955              3.626
 Vibration    13          0.604              1.948              3.426
 Vibration    14          0.605              1.946              3.385
 Vibration    15          0.607              1.940              3.249
 Vibration    16          0.607              1.937              3.190
 Vibration    17          0.608              1.936              3.173
 Vibration    18          0.610              1.928              3.029
 Vibration    19          0.612              1.924              2.952
 Vibration    20          0.614              1.916              2.847
 Vibration    21          0.615              1.912              2.782
 Vibration    22          0.617              1.908              2.730
 Vibration    23          0.620              1.897              2.614
 Vibration    24          0.622              1.891              2.550
 Vibration    25          0.623              1.888              2.512
 Vibration    26          0.627              1.873              2.381
 Vibration    27          0.629              1.869              2.342
 Vibration    28          0.630              1.865              2.316
 Vibration    29          0.632              1.857              2.254
 Vibration    30          0.637              1.843              2.154
 Vibration    31          0.641              1.830              2.068
 Vibration    32          0.646              1.815              1.981
 Vibration    33          0.649              1.804              1.922
 Vibration    34          0.652              1.796              1.884
 Vibration    35          0.662              1.765              1.742
 Vibration    36          0.672              1.734              1.618
 Vibration    37          0.675              1.726              1.587
 Vibration    38          0.683              1.703              1.508
 Vibration    39          0.684              1.699              1.494
 Vibration    40          0.690              1.682              1.443
 Vibration    41          0.693              1.674              1.416
 Vibration    42          0.695              1.667              1.398
 Vibration    43          0.703              1.645              1.335
 Vibration    44          0.706              1.635              1.308
 Vibration    45          0.709              1.626              1.287
 Vibration    46          0.711              1.619              1.269
 Vibration    47          0.717              1.604              1.232
 Vibration    48          0.722              1.590              1.200
 Vibration    49          0.730              1.567              1.148
 Vibration    50          0.733              1.559              1.131
 Vibration    51          0.750              1.512              1.037
 Vibration    52          0.758              1.490              0.998
 Vibration    53          0.767              1.467              0.958
 Vibration    54          0.773              1.453              0.933
 Vibration    55          0.776              1.443              0.918
 Vibration    56          0.792              1.403              0.855
 Vibration    57          0.796              1.392              0.839
 Vibration    58          0.805              1.371              0.810
 Vibration    59          0.808              1.362              0.798
 Vibration    60          0.813              1.351              0.783
 Vibration    61          0.823              1.326              0.750
 Vibration    62          0.835              1.298              0.715
 Vibration    63          0.911              1.127              0.532
 Vibration    64          0.920              1.108              0.515
 Vibration    65          0.925              1.098              0.506
 Vibration    66          0.929              1.090              0.499

                           ! Non-Optimized Parameters !
 Normal termination of Gaussian 16 at Fri Dec  9 18:49:31 2022.
