 Gaussian 16, Revision C.01,
 Gaussian 16:  ES64L-G16RevC.01  3-Jul-2019

 ---------------------------------------
 # opt freq b3lyp/gen nosymm pseudo=read
 ---------------------------------------

 -------------------
 Title Card Required
 -------------------
 Symbolic Z-matrix:
 Charge =  0 Multiplicity = 1

 SCF Done:  E(RB3LYP) =  -6845.75630800     A.U. after   37 cycles
 SCF Done:  E(RB3LYP) =  -6845.76252134     A.U. after   22 cycles
 SCF Done:  E(RB3LYP) =  -6845.76441389     A.U. after   21 cycles
 SCF Done:  E(RB3LYP) =  -6845.76663217     A.U. after   22 cycles
 SCF Done:  E(RB3LYP) =  -6845.76641445     A.U. after   22 cycles
 SCF Done:  E(RB3LYP) =  -6845.77450295     A.U. after   22 cycles
 SCF Done:  E(RB3LYP) =  -6845.77900595     A.U. after   22 cycles
 SCF Done:  E(RB3LYP) =  -6845.78007860     A.U. after   21 cycles
 SCF Done:  E(RB3LYP) =  -6845.78312206     A.U. after   23 cycles
 SCF Done:  E(RB3LYP) =  -6845.78747144     A.U. after   21 cycles
 SCF Done:  E(RB3LYP) =  -6845.79938792     A.U. after   17 cycles
 SCF Done:  E(RB3LYP) =  -6845.79946700     A.U. after   18 cycles
 SCF Done:  E(RB3LYP) =  -6845.79951504     A.U. after   17 cycles
 SCF Done:  E(RB3LYP) =  -6845.79953904     A.U. after   17 cycles
 SCF Done:  E(RB3LYP) =  -6845.79954417     A.U. after   16 cycles
 SCF Done:  E(RB3LYP) =  -6845.79954746     A.U. after   15 cycles
 SCF Done:  E(RB3LYP) =  -6845.79954958     A.U. after   15 cycles
 SCF Done:  E(RB3LYP) =  -6845.79955022     A.U. after   14 cycles
 SCF Done:  E(RB3LYP) =  -6845.79955063     A.U. after   12 cycles
 Optimization completed.
    -- Stationary point found.
 Normal termination of Gaussian 16 at Tue Dec 13 09:52:19 2022.

 ------------------------------------------------------------------
 #N Geom=AllCheck Guess=TCheck SCRF=Check GenChk RB3LYP/ChkBas Freq
 ------------------------------------------------------------------

 Structure from the checkpoint file:  "/home/chesagar/scratch/Gau-76152.chk"
 -------------------
 Title Card Required
 -------------------
 Charge =  0 Multiplicity = 1

                          Input orientation:
 ---------------------------------------------------------------------
 Center     Atomic      Atomic             Coordinates (Angstroms)
 Number     Number       Type             X           Y           Z
 ---------------------------------------------------------------------
      1         42           0        0.297765    1.484428   12.013548
      2         16           0        1.231906    3.567868   12.519623
      3         16           0       -1.785312    1.600041   13.018265
      4         16           0       -0.411144    1.287907    9.759018
      5         16           0        1.999607   -0.136634   11.661483
      6         42           0       -2.149818    2.554571   10.907857
      7         16           0       -3.281253    2.054517    8.637521
      8         16           0       -1.559418    4.701971   11.090493
      9         42           0        0.293698    3.480565   10.234917
     10         16           0       -0.305663    4.360138    7.936965
     11         16           0        2.479181    3.079586    9.086143
     12         42           0        3.284046    1.420444   10.384902
     13         42           0       -2.557963    4.131477    7.698653
     14         16           0        4.590506    2.382293   12.024477
     15         16           0        4.651283    0.223750    9.314379
     16         16           0       -3.947583    5.692875    8.731069
     17         16           0       -3.087374    4.098150    5.664739
     18         42           0       -4.778592    3.652962    9.483620
     19         16           0       -6.739193    3.330052    8.770842
     20         16           0       -4.481530    3.224951   11.670520
     21         42           0        2.794223    1.668722   13.247810
     22         16           0        3.410269   -0.155294   14.585586
     23          1           0        3.790364    0.419669   15.751275
     24         16           0        2.734734    2.855383   15.280711
     25          1           0        2.275424    4.084487   14.953238
 ---------------------------------------------------------------------

 SCF Done:  E(RB3LYP) =  -6845.79955063     A.U. after    3 cycles

 Alpha  occ. eigenvalues --  -88.93376 -88.92921 -88.92539 -88.91926 -88.91861
 Alpha  occ. eigenvalues --  -88.91329 -88.90374 -88.89610 -88.89444 -88.89220
 Alpha  occ. eigenvalues --  -88.89210 -88.88797 -88.88707 -88.88656 -88.88448
 Alpha  occ. eigenvalues --  -88.88205  -8.00906  -8.00547  -8.00182  -7.99515
 Alpha  occ. eigenvalues --   -7.99386  -7.99072  -7.98193  -7.97520  -7.97262
 Alpha  occ. eigenvalues --   -7.97195  -7.96961  -7.96559  -7.96469  -7.96376
 Alpha  occ. eigenvalues --   -7.96348  -7.95905  -5.96941  -5.96867  -5.96792
 Alpha  occ. eigenvalues --   -5.96549  -5.96505  -5.96446  -5.96213  -5.96129
 Alpha  occ. eigenvalues --   -5.96069  -5.95525  -5.95499  -5.95449  -5.95408
 Alpha  occ. eigenvalues --   -5.95404  -5.95197  -5.95096  -5.95016  -5.94947
 Alpha  occ. eigenvalues --   -5.94248  -5.94142  -5.94011  -5.93535  -5.93484
 Alpha  occ. eigenvalues --   -5.93344  -5.93336  -5.93198  -5.93180  -5.93166
 Alpha  occ. eigenvalues --   -5.93088  -5.93024  -5.93015  -5.92902  -5.92812
 Alpha  occ. eigenvalues --   -5.92633  -5.92604  -5.92544  -5.92510  -5.92443
 Alpha  occ. eigenvalues --   -5.92388  -5.92359  -5.92334  -5.92262  -5.92235
 Alpha  occ. eigenvalues --   -5.92186  -5.92163  -5.92118  -5.91761  -5.91651
 Alpha  occ. eigenvalues --   -2.58015  -2.57698  -2.57415  -2.56855  -2.56571
 Alpha  occ. eigenvalues --   -2.56327  -2.55195  -1.61648  -1.60860  -1.60706
 Alpha  occ. eigenvalues --   -1.60463  -1.60126  -1.59901  -1.59812  -1.59740
 Alpha  occ. eigenvalues --   -1.59654  -1.59436  -1.59194  -1.58996  -1.58901
 Alpha  occ. eigenvalues --   -1.58445  -1.58221  -1.58100  -1.57958  -1.57892
 Alpha  occ. eigenvalues --   -1.57752  -1.57094  -1.56403  -0.77528  -0.75977
 Alpha  occ. eigenvalues --   -0.75542  -0.75169  -0.74586  -0.73782  -0.73387
 Alpha  occ. eigenvalues --   -0.73037  -0.72619  -0.72141  -0.71998  -0.71487
 Alpha  occ. eigenvalues --   -0.70839  -0.70656  -0.70357  -0.69668  -0.45847
 Alpha  occ. eigenvalues --   -0.44660  -0.44429  -0.44071  -0.43163  -0.42587
 Alpha  occ. eigenvalues --   -0.42457  -0.41863  -0.41660  -0.41319  -0.41041
 Alpha  occ. eigenvalues --   -0.39992  -0.39716  -0.39511  -0.39227  -0.38881
 Alpha  occ. eigenvalues --   -0.38783  -0.38650  -0.38298  -0.38192  -0.37764
 Alpha  occ. eigenvalues --   -0.37543  -0.37047  -0.36752  -0.36515  -0.36418
 Alpha  occ. eigenvalues --   -0.35633  -0.35262  -0.35185  -0.35066  -0.34905
 Alpha  occ. eigenvalues --   -0.34140  -0.33803  -0.33474  -0.32991  -0.32630
 Alpha  occ. eigenvalues --   -0.32259  -0.31757  -0.31705  -0.31473  -0.31167
 Alpha  occ. eigenvalues --   -0.30972  -0.30369  -0.30045  -0.29633  -0.29390
 Alpha  occ. eigenvalues --   -0.28658  -0.28263  -0.27871  -0.27176  -0.26393
 Alpha  occ. eigenvalues --   -0.26078  -0.25575  -0.25510
 Alpha virt. eigenvalues --   -0.18769  -0.17928  -0.17091  -0.16552  -0.15938
 Alpha virt. eigenvalues --   -0.15436  -0.14959  -0.14529  -0.14398  -0.13647
 Alpha virt. eigenvalues --   -0.13335  -0.13146  -0.12878  -0.12650  -0.12226

 Mulliken charges:
               1
     1  Mo  -0.002742
     2  S    0.176964
     3  S    0.012450
     4  S    0.290761
     5  S    0.055998
     6  Mo  -0.288611
     7  S    0.033453
     8  S    0.235851
     9  Mo  -0.367717
    10  S   -0.090941
    11  S   -0.063423
    12  Mo   0.301746
    13  Mo   0.245710
    14  S    0.040109
    15  S   -0.142626
    16  S   -0.012159
    17  S   -0.151406
    18  Mo   0.233705
    19  S   -0.203434
    20  S   -0.039526
    21  Mo  -0.358079
    22  S   -0.032677
    23  H    0.083050
    24  S   -0.040691
    25  H    0.084235
 Sum of Mulliken charges =  -0.00000

 Dipole moment (field-independent basis, Debye):
    X=              0.5435    Y=             -0.2541    Z=              0.9054  Tot=              1.0862
 Quadrupole moment (field-independent basis, Debye-Ang):
   XX=           -387.6359   YY=           -372.4976   ZZ=           -358.6217
   XY=              9.9633   XZ=              3.9614   YZ=              6.1830

  Exact polarizability:     932.731    -164.432     448.520     182.838     -91.536     706.116
 Approx polarizability:    2459.424    -253.227    1441.624     159.837    -211.165    2109.418

                      1                      2                      3
                      A                      A                      A
 Frequencies --     24.5508                30.0598                36.9710
 Red. masses --     19.9581                32.6890                21.3735
 Frc consts  --      0.0071                 0.0174                 0.0172
 IR Inten    --      0.2007                 0.6934                 0.1405

                      4                      5                      6
                      A                      A                      A
 Frequencies --     43.1182                57.6437                61.4530
 Red. masses --     31.9500                37.3520                30.4726
 Frc consts  --      0.0350                 0.0731                 0.0678
 IR Inten    --      0.2100                 1.7964                 0.8595

                      7                      8                      9
                      A                      A                      A
 Frequencies --     69.5398                80.0130                86.0909
 Red. masses --     32.6135                38.9674                28.1929
 Frc consts  --      0.0929                 0.1470                 0.1231
 IR Inten    --      0.9145                 1.0322                 0.3521

                     10                     11                     12
                      A                      A                      A
 Frequencies --     87.8712                91.0693                97.0935
 Red. masses --     35.5655                39.8659                41.0345
 Frc consts  --      0.1618                 0.1948                 0.2279
 IR Inten    --      0.2492                 0.6077                 2.2962

                     13                     14                     15
                      A                      A                      A
 Frequencies --    104.8608               108.6278               110.8893
 Red. masses --     29.4703                32.7761                33.9565
 Frc consts  --      0.1909                 0.2279                 0.2460
 IR Inten    --      0.8552                 1.9947                 0.0129

                     16                     17                     18
                      A                      A                      A
 Frequencies --    116.7743               122.7112               129.2263
 Red. masses --     36.8861                34.3565                35.0012
 Frc consts  --      0.2964                 0.3048                 0.3444
 IR Inten    --      0.4836                 0.3717                 4.7999

                     19                     20                     21
                      A                      A                      A
 Frequencies --    136.7026               138.6991               144.3496
 Red. masses --     37.6011                33.8271                38.3751
 Frc consts  --      0.4140                 0.3834                 0.4711
 IR Inten    --      0.3897                 2.3609                 0.1384

                     22                     23                     24
                      A                      A                      A
 Frequencies --    150.6778               156.6144               161.4820
 Red. masses --     38.3188                30.4535                35.3541
 Frc consts  --      0.5126                 0.4401                 0.5432
 IR Inten    --      0.1386                 2.5039                 0.2817

                     25                     26                     27
                      A                      A                      A
 Frequencies --    168.7244               175.9737               179.2891
 Red. masses --     25.8275                29.5432                36.0102
 Frc consts  --      0.4332                 0.5390                 0.6820
 IR Inten    --      0.4961                 0.7692                 5.6768

                     28                     29                     30
                      A                      A                      A
 Frequencies --    184.5802               190.4070               194.6893
 Red. masses --     46.6202                54.1272                46.0681
 Frc consts  --      0.9358                 1.1562                 1.0288
 IR Inten    --      0.6064                 4.4164                 1.3252

                     31                     32                     33
                      A                      A                      A
 Frequencies --    207.4237               219.9261               231.4349
 Red. masses --     20.2112                35.0824                35.8806
 Frc consts  --      0.5123                 0.9998                 1.1323
 IR Inten    --      1.2229                 2.4182                 0.1776

                     34                     35                     36
                      A                      A                      A
 Frequencies --    233.5626               247.5656               252.7610
 Red. masses --     34.4654                30.9020                23.9512
 Frc consts  --      1.1077                 1.1159                 0.9016
 IR Inten    --      8.7461                54.1088                 2.3542

                     37                     38                     39
                      A                      A                      A
 Frequencies --    268.5810               275.6266               282.8849
 Red. masses --     39.7665                38.5434                31.4879
 Frc consts  --      1.6901                 1.7252                 1.4846
 IR Inten    --      3.6901                 2.2032                 5.1275

                     40                     41                     42
                      A                      A                      A
 Frequencies --    290.1205               299.7714               308.8983
 Red. masses --     31.6889                35.2933                34.2005
 Frc consts  --      1.5715                 1.8686                 1.9227
 IR Inten    --     13.9354                 7.9293                 2.7288

                     43                     44                     45
                      A                      A                      A
 Frequencies --    321.4605               326.3102               334.7315
 Red. masses --     23.8985                31.4775                13.7202
 Frc consts  --      1.4550                 1.9748                 0.9057
 IR Inten    --     10.1225                10.9909                14.1439

                     46                     47                     48
                      A                      A                      A
 Frequencies --    341.6141               344.0581               354.8007
 Red. masses --     34.0890                 7.5948                41.1230
 Frc consts  --      2.3439                 0.5297                 3.0500
 IR Inten    --      8.0863                 8.3176                 4.2272

                     49                     50                     51
                      A                      A                      A
 Frequencies --    359.8190               377.5297               387.8348
 Red. masses --     24.4349                 4.0761                 6.2816
 Frc consts  --      1.8639                 0.3423                 0.5567
 IR Inten    --     44.8085                 9.1501                73.2763

                     52                     53                     54
                      A                      A                      A
 Frequencies --    393.6108               404.2619               412.7464
 Red. masses --      2.6122                33.8610                21.2004
 Frc consts  --      0.2384                 3.2604                 2.1279
 IR Inten    --      9.6979                13.9580                 1.2201

                     55                     56                     57
                      A                      A                      A
 Frequencies --    421.5879               427.5235               431.1097
 Red. masses --     22.0517                 3.2085                 3.1183
 Frc consts  --      2.3092                 0.3455                 0.3415
 IR Inten    --     20.0544                 6.5525                 5.0549

                     58                     59                     60
                      A                      A                      A
 Frequencies --    433.3197               442.7107               447.0934
 Red. masses --      5.9498                23.6629                 6.1574
 Frc consts  --      0.6582                 2.7325                 0.7252
 IR Inten    --      4.2044                23.2035                 4.2095

                     61                     62                     63
                      A                      A                      A
 Frequencies --    452.1823               472.5221               564.8534
 Red. masses --     39.8863                38.4370                38.7003
 Frc consts  --      4.8051                 5.0564                 7.2751
 IR Inten    --     13.7020                 5.3399               131.6644

                     64                     65                     66
                      A                      A                      A
 Frequencies --    569.7433               575.4021               718.0791
 Red. masses --     39.5051                39.1825                 1.0490
 Frc consts  --      7.5555                 7.6434                 0.3187
 IR Inten    --     80.8897               147.6738                10.1277

                     67                     68                     69
                      A                      A                      A
 Frequencies --    755.9257              2630.2384              2643.3046
 Red. masses --      1.0512                 1.0383                 1.0383
 Frc consts  --      0.3539                 4.2322                 4.2743
 IR Inten    --     15.0736                 4.0101                 3.4132

 - Thermochemistry -
 -------------------
 Temperature   298.150 Kelvin.  Pressure   1.00000 Atm.
 Atom     1 has atomic number 42 and mass  97.90550

 Molecular mass:  1198.90730 amu.
 Principal axes and moments of inertia in atomic units:
                           1         2         3
     Eigenvalues --  ******************************
           X            0.85296  -0.48073   0.20338
           Y           -0.29111  -0.11468   0.94979
           Z            0.43327   0.86934   0.23776
 This molecule is an asymmetric top.
 Rotational symmetry number  1.
 Warning -- assumption of classical behavior for rotation
           may cause significant error
 Rotational temperatures (Kelvin)      0.00566     0.00163     0.00143
 Rotational constants (GHZ):           0.11793     0.03389     0.02976
 Zero-point vibrational energy     136994.5 (Joules/Mol)
                                   32.74246 (Kcal/Mol)
 Warning -- explicit consideration of  65 degrees of freedom as
           vibrations may cause significant error
 Vibrational temperatures:     35.32    43.25    53.19    62.04    82.94
          (Kelvin)             88.42   100.05   115.12   123.87   126.43
                              131.03   139.70   150.87   156.29   159.55
                              168.01   176.55   185.93   196.68   199.56
                              207.69   216.79   225.33   232.34   242.76
                              253.19   257.96   265.57   273.95   280.11
                              298.44   316.42   332.98   336.04   356.19
                              363.67   386.43   396.57   407.01   417.42
                              431.30   444.44   462.51   469.49   481.60
                              491.51   495.02   510.48   517.70   543.18
                              558.01   566.32   581.64   593.85   606.57
                              615.11   620.27   623.45   636.96   643.27
                              650.59   679.85   812.70   819.73   827.88
                             1033.16  1087.61  3784.33  3803.13

 Zero-point correction=                           0.052178 (Hartree/Particle)
 Thermal correction to Energy=                    0.089121
 Thermal correction to Enthalpy=                  0.090065
 Thermal correction to Gibbs Free Energy=        -0.020043
 Sum of electronic and zero-point Energies=          -6845.747372
 Sum of electronic and thermal Energies=             -6845.710429
 Sum of electronic and thermal Enthalpies=           -6845.709485
 Sum of electronic and thermal Free Energies=        -6845.819594

                     E (Thermal)             CV                S
                      KCal/Mol        Cal/Mol-Kelvin    Cal/Mol-Kelvin
 Total                   55.924            119.165            231.743
 Electronic               0.000              0.000              0.000
 Translational            0.889              2.981             47.122
 Rotational               0.889              2.981             39.132
 Vibrational             54.147            113.204            145.489
 Vibration     1          0.593              1.985              6.227
 Vibration     2          0.594              1.984              5.825
 Vibration     3          0.594              1.982              5.415
 Vibration     4          0.595              1.980              5.110
 Vibration     5          0.596              1.974              4.536
 Vibration     6          0.597              1.973              4.410
 Vibration     7          0.598              1.969              4.166
 Vibration     8          0.600              1.963              3.891
 Vibration     9          0.601              1.959              3.747
 Vibration    10          0.601              1.958              3.707
 Vibration    11          0.602              1.956              3.637
 Vibration    12          0.603              1.951              3.512
 Vibration    13          0.605              1.945              3.362
 Vibration    14          0.606              1.942              3.293
 Vibration    15          0.607              1.940              3.253
 Vibration    16          0.608              1.935              3.153
 Vibration    17          0.610              1.930              3.057
 Vibration    18          0.612              1.924              2.958
 Vibration    19          0.614              1.917              2.850
 Vibration    20          0.614              1.915              2.822
 Vibration    21          0.616              1.909              2.745
 Vibration    22          0.618              1.902              2.664
 Vibration    23          0.620              1.895              2.590
 Vibration    24          0.622              1.890              2.532
 Vibration    25          0.625              1.881              2.450
 Vibration    26          0.628              1.872              2.371
 Vibration    27          0.629              1.868              2.336
 Vibration    28          0.631              1.861              2.282
 Vibration    29          0.634              1.853              2.224
 Vibration    30          0.635              1.847              2.183
 Vibration    31          0.641              1.829              2.066
 Vibration    32          0.647              1.811              1.960
 Vibration    33          0.653              1.793              1.868
 Vibration    34          0.654              1.790              1.851
 Vibration    35          0.661              1.767              1.748
 Vibration    36          0.664              1.758              1.711
 Vibration    37          0.673              1.731              1.605
 Vibration    38          0.677              1.718              1.561
 Vibration    39          0.682              1.705              1.516
 Vibration    40          0.686              1.692              1.473
 Vibration    41          0.692              1.674              1.418
 Vibration    42          0.698              1.657              1.368
 Vibration    43          0.707              1.632              1.303
 Vibration    44          0.710              1.623              1.278
 Vibration    45          0.716              1.606              1.237
 Vibration    46          0.721              1.592              1.205
 Vibration    47          0.723              1.587              1.193
 Vibration    48          0.731              1.565              1.145
 Vibration    49          0.734              1.555              1.123
 Vibration    50          0.748              1.518              1.049
 Vibration    51          0.756              1.496              1.008
 Vibration    52          0.761              1.484              0.986
 Vibration    53          0.769              1.461              0.947
 Vibration    54          0.777              1.443              0.917
 Vibration    55          0.784              1.423              0.887
 Vibration    56          0.789              1.410              0.867
 Vibration    57          0.792              1.402              0.855
 Vibration    58          0.794              1.398              0.848
 Vibration    59          0.802              1.377              0.818
 Vibration    60          0.806              1.367              0.805
 Vibration    61          0.811              1.356              0.789
 Vibration    62          0.829              1.311              0.731
 Vibration    63          0.921              1.107              0.514
 Vibration    64          0.926              1.097              0.505
 Vibration    65          0.932              1.084              0.494

                           ! Non-Optimized Parameters !
 Normal termination of Gaussian 16 at Tue Dec 13 09:57:56 2022.
