 Gaussian 16, Revision C.01,
 Gaussian 16:  ES64L-G16RevC.01  3-Jul-2019

 -----------------------------------------------------------
 # opt=(calcfc,ts,noeigen) freq b3lyp/gen nosymm pseudo=read
 -----------------------------------------------------------

 -------------------
 Title Card Required
 -------------------
 Symbolic Z-matrix:
 Charge =  0 Multiplicity = 1

 SCF Done:  E(RB3LYP) =  -6845.68056267     A.U. after   38 cycles
 SCF Done:  E(RB3LYP) =  -6845.70255195     A.U. after   22 cycles
 SCF Done:  E(RB3LYP) =  -6845.71874393     A.U. after   22 cycles
 SCF Done:  E(RB3LYP) =  -6845.73299445     A.U. after   22 cycles
 SCF Done:  E(RB3LYP) =  -6845.73876150     A.U. after   22 cycles
 SCF Done:  E(RB3LYP) =  -6845.73992138     A.U. after   20 cycles
 SCF Done:  E(RB3LYP) =  -6845.74213224     A.U. after   20 cycles
 SCF Done:  E(RB3LYP) =  -6845.74386400     A.U. after   21 cycles
 SCF Done:  E(RB3LYP) =  -6845.74513460     A.U. after   21 cycles
 SCF Done:  E(RB3LYP) =  -6845.74553332     A.U. after   20 cycles
 SCF Done:  E(RB3LYP) =  -6845.74665325     A.U. after   18 cycles
 SCF Done:  E(RB3LYP) =  -6845.74667585     A.U. after   17 cycles
 SCF Done:  E(RB3LYP) =  -6845.74669673     A.U. after   17 cycles
 SCF Done:  E(RB3LYP) =  -6845.74669281     A.U. after   17 cycles
 SCF Done:  E(RB3LYP) =  -6845.74670770     A.U. after   16 cycles
 SCF Done:  E(RB3LYP) =  -6845.74670826     A.U. after   15 cycles
 SCF Done:  E(RB3LYP) =  -6845.74670866     A.U. after   13 cycles
 SCF Done:  E(RB3LYP) =  -6845.74670851     A.U. after   13 cycles
 SCF Done:  E(RB3LYP) =  -6845.74670870     A.U. after   13 cycles
 Optimization completed.
    -- Stationary point found.
 Normal termination of Gaussian 16 at Fri Dec  9 18:46:28 2022.

 ------------------------------------------------------------------
 #N Geom=AllCheck Guess=TCheck SCRF=Check GenChk RB3LYP/ChkBas Freq
 ------------------------------------------------------------------

 Structure from the checkpoint file:  "/home/chesagar/scratch/Gau-52516.chk"
 -------------------
 Title Card Required
 -------------------
 Charge =  0 Multiplicity = 1

                          Input orientation:
 ---------------------------------------------------------------------
 Center     Atomic      Atomic             Coordinates (Angstroms)
 Number     Number       Type             X           Y           Z
 ---------------------------------------------------------------------
      1         42           0        0.367387    1.664191   12.098592
      2         16           0        1.373774    3.699478   12.313045
      3         16           0       -1.657471    1.833495   13.178531
      4         16           0       -0.403177    1.304336    9.886881
      5         16           0        2.081251    0.082434   11.747439
      6         42           0       -2.100547    2.635752   11.003936
      7         16           0       -3.314770    1.982857    8.824369
      8         16           0       -1.507496    4.789732   10.980257
      9         42           0        0.317345    3.517020   10.131466
     10         16           0       -0.346372    4.227429    7.817539
     11         16           0        2.524627    3.072047    9.032153
     12         42           0        3.408217    1.481533   10.390453
     13         42           0       -2.615972    3.983903    7.715087
     14         16           0        4.808268    2.455813   11.932390
     15         16           0        4.657996    0.219133    9.264912
     16         16           0       -3.972734    5.618371    8.678197
     17         16           0       -3.234552    3.792644    5.716768
     18         42           0       -4.773924    3.642543    9.616304
     19         16           0       -6.761051    3.279548    9.004506
     20         16           0       -4.400921    3.369419   11.815950
     21         42           0        3.095969    1.838809   13.407413
     22         16           0        3.767930    0.196793   14.664589
     23          1           0        3.967089    1.204580   16.153919
     24         16           0        3.143219    3.266462   15.058611
     25          1           0        3.780095    2.064988   16.260187
 ---------------------------------------------------------------------

 SCF Done:  E(RB3LYP) =  -6845.74670870     A.U. after    3 cycles

 Alpha  occ. eigenvalues --  -88.93647 -88.93246 -88.92792 -88.92757 -88.92503
 Alpha  occ. eigenvalues --  -88.91611 -88.90118 -88.89751 -88.89596 -88.89410
 Alpha  occ. eigenvalues --  -88.89376 -88.89056 -88.88955 -88.88669 -88.88647
 Alpha  occ. eigenvalues --  -88.88410  -8.01186  -8.00867  -8.00433  -8.00309
 Alpha  occ. eigenvalues --   -8.00140  -7.99348  -7.98052  -7.97571  -7.97515
 Alpha  occ. eigenvalues --   -7.97208  -7.97122  -7.96823  -7.96711  -7.96594
 Alpha  occ. eigenvalues --   -7.96385  -7.96136  -5.97214  -5.97140  -5.97084
 Alpha  occ. eigenvalues --   -5.96873  -5.96823  -5.96763  -5.96463  -5.96383
 Alpha  occ. eigenvalues --   -5.96353  -5.96318  -5.96277  -5.96181  -5.96144
 Alpha  occ. eigenvalues --   -5.96125  -5.96026  -5.95361  -5.95299  -5.95229
 Alpha  occ. eigenvalues --   -5.94043  -5.94005  -5.93902  -5.93613  -5.93551
 Alpha  occ. eigenvalues --   -5.93544  -5.93460  -5.93404  -5.93309  -5.93293
 Alpha  occ. eigenvalues --   -5.93176  -5.93149  -5.93063  -5.93025  -5.92974
 Alpha  occ. eigenvalues --   -5.92892  -5.92788  -5.92768  -5.92684  -5.92662
 Alpha  occ. eigenvalues --   -5.92579  -5.92550  -5.92502  -5.92491  -5.92455
 Alpha  occ. eigenvalues --   -5.92273  -5.92233  -5.92227  -5.92098  -5.91920
 Alpha  occ. eigenvalues --   -2.58195  -2.57896  -2.57828  -2.57359  -2.56872
 Alpha  occ. eigenvalues --   -2.56560  -2.54876  -1.61771  -1.61139  -1.60977
 Alpha  occ. eigenvalues --   -1.60899  -1.60290  -1.60196  -1.60132  -1.59997
 Alpha  occ. eigenvalues --   -1.59925  -1.59691  -1.59485  -1.59449  -1.59429
 Alpha  occ. eigenvalues --   -1.58530  -1.58369  -1.58346  -1.58206  -1.58011
 Alpha  occ. eigenvalues --   -1.57461  -1.57126  -1.56743  -0.77846  -0.76180
 Alpha  occ. eigenvalues --   -0.75892  -0.75412  -0.74886  -0.73914  -0.72637
 Alpha  occ. eigenvalues --   -0.72275  -0.72206  -0.71727  -0.71433  -0.71157
 Alpha  occ. eigenvalues --   -0.70968  -0.70698  -0.69876  -0.69358  -0.48180
 Alpha  occ. eigenvalues --   -0.44829  -0.44699  -0.44306  -0.43197  -0.42898
 Alpha  occ. eigenvalues --   -0.42343  -0.42181  -0.41956  -0.41288  -0.40560
 Alpha  occ. eigenvalues --   -0.40121  -0.39927  -0.39622  -0.39075  -0.38869
 Alpha  occ. eigenvalues --   -0.38718  -0.38496  -0.38282  -0.37958  -0.37767
 Alpha  occ. eigenvalues --   -0.37376  -0.36995  -0.36693  -0.36657  -0.36205
 Alpha  occ. eigenvalues --   -0.35487  -0.35423  -0.35346  -0.35271  -0.35031
 Alpha  occ. eigenvalues --   -0.34467  -0.33827  -0.33569  -0.33225  -0.32867
 Alpha  occ. eigenvalues --   -0.32724  -0.32457  -0.32012  -0.31513  -0.31273
 Alpha  occ. eigenvalues --   -0.30930  -0.30421  -0.30133  -0.29683  -0.28955
 Alpha  occ. eigenvalues --   -0.28566  -0.28181  -0.27751  -0.27438  -0.27035
 Alpha  occ. eigenvalues --   -0.26331  -0.25915  -0.25560
 Alpha virt. eigenvalues --   -0.18938  -0.18044  -0.17303  -0.16872  -0.16140
 Alpha virt. eigenvalues --   -0.16052  -0.15532  -0.15001  -0.14452  -0.13697
 Alpha virt. eigenvalues --   -0.13442  -0.13305  -0.13148  -0.12886  -0.12441

 Mulliken charges:
               1
     1  Mo  -0.059471
     2  S    0.218983
     3  S    0.025035
     4  S    0.280180
     5  S    0.018717
     6  Mo  -0.288496
     7  S    0.036350
     8  S    0.236498
     9  Mo  -0.365093
    10  S   -0.085238
    11  S   -0.055932
    12  Mo   0.290048
    13  Mo   0.235677
    14  S    0.039685
    15  S   -0.127217
    16  S   -0.008627
    17  S   -0.143470
    18  Mo   0.237516
    19  S   -0.200683
    20  S   -0.039214
    21  Mo  -0.088714
    22  S   -0.092942
    23  H    0.004352
    24  S   -0.077743
    25  H    0.009798
 Sum of Mulliken charges =  -0.00000

 Dipole moment (field-independent basis, Debye):
    X=             -0.4132    Y=             -1.2794    Z=             -0.2604  Tot=              1.3695
 Quadrupole moment (field-independent basis, Debye-Ang):
   XX=           -389.6628   YY=           -376.9559   ZZ=           -387.3471
   XY=              3.9996   XZ=            -10.5820   YZ=            -11.9508

  Exact polarizability:     966.532    -160.002     437.826     200.111     -73.551     719.998
 Approx polarizability:    2504.105    -279.702    1504.896     203.214    -159.335    2205.996

 ******    1 imaginary frequencies (negative Signs) ******

                      1                      2                      3
                      A                      A                      A
 Frequencies --   -797.3749                28.4492                28.7081
 Red. masses --      1.2717                30.7285                27.3964
 Frc consts  --      0.4764                 0.0147                 0.0133
 IR Inten    --    224.3818                 0.5736                 0.2581

                      4                      5                      6
                      A                      A                      A
 Frequencies --     40.3114                52.7534                57.4556
 Red. masses --     31.5605                35.2551                31.3933
 Frc consts  --      0.0302                 0.0578                 0.0611
 IR Inten    --      0.2496                 2.2637                 1.7491

                      7                      8                      9
                      A                      A                      A
 Frequencies --     64.1275                66.3091                80.9214
 Red. masses --     36.6244                31.7662                40.2712
 Frc consts  --      0.0887                 0.0823                 0.1554
 IR Inten    --      0.8390                 0.4352                 1.6128

                     10                     11                     12
                      A                      A                      A
 Frequencies --     86.2463                89.0674                90.6439
 Red. masses --     30.4154                43.5981                25.9310
 Frc consts  --      0.1333                 0.2038                 0.1255
 IR Inten    --      0.5948                 0.9148                 0.7120

                     13                     14                     15
                      A                      A                      A
 Frequencies --     96.9712               102.9877               104.5819
 Red. masses --     42.5420                31.1850                28.4336
 Frc consts  --      0.2357                 0.1949                 0.1832
 IR Inten    --      1.1661                 2.6689                 0.5777

                     16                     17                     18
                      A                      A                      A
 Frequencies --    109.9447               117.2674               119.0508
 Red. masses --     32.3174                31.1441                35.0555
 Frc consts  --      0.2302                 0.2523                 0.2927
 IR Inten    --      1.1818                 0.2679                 0.6569

                     19                     20                     21
                      A                      A                      A
 Frequencies --    124.6915               133.6175               136.0701
 Red. masses --     36.2804                36.6896                38.4879
 Frc consts  --      0.3324                 0.3859                 0.4199
 IR Inten    --      3.2547                 0.9471                 0.5252

                     22                     23                     24
                      A                      A                      A
 Frequencies --    137.8895               150.2495               155.2819
 Red. masses --     38.5138                39.1329                23.3701
 Frc consts  --      0.4314                 0.5205                 0.3320
 IR Inten    --      2.7684                 0.5049                 0.8066

                     25                     26                     27
                      A                      A                      A
 Frequencies --    159.6040               160.5512               168.7223
 Red. masses --     32.5504                37.8584                37.1675
 Frc consts  --      0.4885                 0.5750                 0.6234
 IR Inten    --      0.1487                 0.4592                 0.4990

                     28                     29                     30
                      A                      A                      A
 Frequencies --    179.4863               182.3869               184.4755
 Red. masses --     36.9795                45.7009                43.0239
 Frc consts  --      0.7019                 0.8957                 0.8627
 IR Inten    --      2.7652                 0.1182                 5.7819

                     31                     32                     33
                      A                      A                      A
 Frequencies --    191.9382               200.7640               218.2489
 Red. masses --     45.7722                43.7640                40.5925
 Frc consts  --      0.9935                 1.0393                 1.1392
 IR Inten    --      0.4780                 3.1301                 2.7877

                     34                     35                     36
                      A                      A                      A
 Frequencies --    233.1408               244.4194               252.9838
 Red. masses --     37.4570                33.9162                33.2280
 Frc consts  --      1.1996                 1.1938                 1.2530
 IR Inten    --      3.1818                41.6645                37.6223

                     37                     38                     39
                      A                      A                      A
 Frequencies --    265.1635               273.3479               282.7446
 Red. masses --     39.4056                38.9521                35.0820
 Frc consts  --      1.6324                 1.7148                 1.6524
 IR Inten    --      0.3749                 2.9483                 6.2673

                     40                     41                     42
                      A                      A                      A
 Frequencies --    290.4287               298.9969               309.4727
 Red. masses --     39.4792                37.7189                35.3942
 Frc consts  --      1.9620                 1.9867                 1.9972
 IR Inten    --     15.0972                10.7149                 8.0751

                     43                     44                     45
                      A                      A                      A
 Frequencies --    313.6839               329.4215               342.0877
 Red. masses --     32.0579                38.2348                39.4116
 Frc consts  --      1.8585                 2.4446                 2.7174
 IR Inten    --      7.9191                11.5704                 3.7325

                     46                     47                     48
                      A                      A                      A
 Frequencies --    346.6688               359.7596               368.9070
 Red. masses --     32.1587                42.7630                34.0179
 Frc consts  --      2.2771                 3.2609                 2.7277
 IR Inten    --      6.3907                 2.4404                 6.4266

                     49                     50                     51
                      A                      A                      A
 Frequencies --    381.6715               399.5185               402.4727
 Red. masses --     37.2133                10.6233                25.5583
 Frc consts  --      3.1939                 0.9990                 2.4392
 IR Inten    --     75.7642                 1.8850                28.3215

                     52                     53                     54
                      A                      A                      A
 Frequencies --    406.8298               423.1164               427.7923
 Red. masses --     36.2849                22.8631                28.7027
 Frc consts  --      3.5384                 2.4116                 3.0948
 IR Inten    --     12.9851                 2.1071                 2.4203

                     55                     56                     57
                      A                      A                      A
 Frequencies --    430.0621               435.6178               437.7322
 Red. masses --     23.1515                17.2974                 1.2610
 Frc consts  --      2.5229                 1.9339                 0.1424
 IR Inten    --      2.3972                14.3193                 1.1101

                     58                     59                     60
                      A                      A                      A
 Frequencies --    443.0036               452.3833               469.7028
 Red. masses --     32.0018                39.1286                35.0872
 Frc consts  --      3.7003                 4.7180                 4.5608
 IR Inten    --     18.2226                13.6890                16.4168

                     61                     62                     63
                      A                      A                      A
 Frequencies --    472.8277               522.8677               569.9204
 Red. masses --     37.9070                 6.6193                39.4886
 Frc consts  --      4.9932                 1.0662                 7.5570
 IR Inten    --      9.5028                83.7945               142.7083

                     64                     65                     66
                      A                      A                      A
 Frequencies --    571.8008               576.3982               882.3721
 Red. masses --     38.3725                38.9863                 1.0671
 Frc consts  --      7.3920                 7.6315                 0.4895
 IR Inten    --     73.1419               135.5790                36.4847

                     67                     68                     69
                      A                      A                      A
 Frequencies --   1004.0046              1039.1363              2173.8205
 Red. masses --      1.0108                 1.0100                 1.0151
 Frc consts  --      0.6004                 0.6426                 2.8262
 IR Inten    --      0.6714                 0.1091                28.0430

 - Thermochemistry -
 -------------------
 Temperature   298.150 Kelvin.  Pressure   1.00000 Atm.
 Atom     1 has atomic number 42 and mass  97.90550

 Molecular mass:  1198.90730 amu.
 Principal axes and moments of inertia in atomic units:
                           1         2         3
     Eigenvalues --  ******************************
           X            0.86951  -0.44991   0.20377
           Y           -0.25778  -0.06146   0.96425
           Z            0.42130   0.89096   0.16942
 This molecule is an asymmetric top.
 Rotational symmetry number  1.
 Warning -- assumption of classical behavior for rotation
           may cause significant error
 Rotational temperatures (Kelvin)      0.00567     0.00159     0.00139
 Rotational constants (GHZ):           0.11823     0.03310     0.02906
    1 imaginary frequencies ignored.
 Zero-point vibrational energy     127127.5 (Joules/Mol)
                                   30.38419 (Kcal/Mol)
 Warning -- explicit consideration of  64 degrees of freedom as
           vibrations may cause significant error
 Vibrational temperatures:     40.93    41.30    58.00    75.90    82.67
          (Kelvin)             92.27    95.40   116.43   124.09   128.15
                              130.42   139.52   148.18   150.47   158.19
                              168.72   171.29   179.40   192.25   195.77
                              198.39   216.18   223.42   229.63   231.00
                              242.75   258.24   262.41   265.42   276.16
                              288.85   314.01   335.44   351.67   363.99
                              381.51   393.29   406.81   417.86   430.19
                              445.26   451.32   473.96   492.19   498.78
                              517.61   530.77   549.14   574.82   579.07
                              585.34   608.77   615.50   618.76   626.76
                              629.80   637.38   650.88   675.80   680.29
                              752.29   819.99   822.69   829.31  1269.54
                             1444.54  1495.09  3127.64

 Zero-point correction=                           0.048420 (Hartree/Particle)
 Thermal correction to Energy=                    0.084606
 Thermal correction to Enthalpy=                  0.085550
 Thermal correction to Gibbs Free Energy=        -0.023170
 Sum of electronic and zero-point Energies=          -6845.698288
 Sum of electronic and thermal Energies=             -6845.662103
 Sum of electronic and thermal Enthalpies=           -6845.661158
 Sum of electronic and thermal Free Energies=        -6845.769879

                     E (Thermal)             CV                S
                      KCal/Mol        Cal/Mol-Kelvin    Cal/Mol-Kelvin
 Total                   53.091            116.551            228.821
 Electronic               0.000              0.000              0.000
 Translational            0.889              2.981             47.122
 Rotational               0.889              2.981             39.177
 Vibrational             51.314            110.590            142.521
 Vibration     1          0.593              1.984              5.935
 Vibration     2          0.593              1.984              5.917
 Vibration     3          0.594              1.981              5.244
 Vibration     4          0.596              1.977              4.711
 Vibration     5          0.596              1.975              4.543
 Vibration     6          0.597              1.971              4.326
 Vibration     7          0.598              1.970              4.260
 Vibration     8          0.600              1.962              3.868
 Vibration     9          0.601              1.959              3.743
 Vibration    10          0.602              1.957              3.680
 Vibration    11          0.602              1.956              3.646
 Vibration    12          0.603              1.951              3.514
 Vibration    13          0.605              1.947              3.397
 Vibration    14          0.605              1.946              3.367
 Vibration    15          0.606              1.941              3.270
 Vibration    16          0.608              1.935              3.145
 Vibration    17          0.609              1.933              3.116
 Vibration    18          0.610              1.928              3.026
 Vibration    19          0.613              1.920              2.893
 Vibration    20          0.614              1.917              2.858
 Vibration    21          0.614              1.915              2.833
 Vibration    22          0.618              1.902              2.669
 Vibration    23          0.620              1.897              2.606
 Vibration    24          0.621              1.892              2.554
 Vibration    25          0.622              1.891              2.543
 Vibration    26          0.625              1.881              2.450
 Vibration    27          0.629              1.867              2.334
 Vibration    28          0.630              1.864              2.304
 Vibration    29          0.631              1.861              2.283
 Vibration    30          0.634              1.851              2.209
 Vibration    31          0.638              1.839              2.126
 Vibration    32          0.646              1.813              1.974
 Vibration    33          0.654              1.790              1.855
 Vibration    34          0.660              1.772              1.770
 Vibration    35          0.664              1.758              1.710
 Vibration    36          0.671              1.737              1.628
 Vibration    37          0.676              1.722              1.575
 Vibration    38          0.682              1.706              1.517
 Vibration    39          0.686              1.692              1.471
 Vibration    40          0.692              1.676              1.423
 Vibration    41          0.699              1.656              1.365
 Vibration    42          0.702              1.648              1.343
 Vibration    43          0.712              1.617              1.263
 Vibration    44          0.721              1.591              1.202
 Vibration    45          0.725              1.582              1.181
 Vibration    46          0.734              1.555              1.123
 Vibration    47          0.741              1.536              1.084
 Vibration    48          0.751              1.509              1.033
 Vibration    49          0.766              1.471              0.964
 Vibration    50          0.768              1.465              0.954
 Vibration    51          0.772              1.455              0.938
 Vibration    52          0.785              1.420              0.881
 Vibration    53          0.789              1.410              0.866
 Vibration    54          0.791              1.405              0.858
 Vibration    55          0.796              1.393              0.840
 Vibration    56          0.798              1.388              0.834
 Vibration    57          0.803              1.376              0.817
 Vibration    58          0.811              1.356              0.789
 Vibration    59          0.827              1.317              0.738
 Vibration    60          0.830              1.310              0.730
 Vibration    61          0.878              1.199              0.603
 Vibration    62          0.926              1.096              0.504
 Vibration    63          0.928              1.092              0.501
 Vibration    64          0.933              1.082              0.492

 Optimization completed.
    -- Stationary point found.
 Normal termination of Gaussian 16 at Fri Dec  9 18:52:04 2022.
