 Gaussian 16, Revision C.01,
 Gaussian 16:  ES64L-G16RevC.01  3-Jul-2019

 ---------------------------------------
 # opt freq b3lyp/gen nosymm pseudo=read
 ---------------------------------------

 -------------------
 Title Card Required
 -------------------
 Symbolic Z-matrix:
 Charge =  0 Multiplicity = 1

 SCF Done:  E(RB3LYP) =  -7252.03797197     A.U. after   48 cycles
 SCF Done:  E(RB3LYP) =  -7252.08452914     A.U. after   29 cycles
 SCF Done:  E(RB3LYP) =  -7252.12610544     A.U. after   30 cycles
 SCF Done:  E(RB3LYP) =  -7252.12294565     A.U. after   29 cycles
 SCF Done:  E(RB3LYP) =  -7252.14051610     A.U. after   25 cycles
 SCF Done:  E(RB3LYP) =  -7252.16105156     A.U. after   25 cycles
 SCF Done:  E(RB3LYP) =  -7252.17101448     A.U. after   23 cycles
 SCF Done:  E(RB3LYP) =  -7252.18257986     A.U. after   25 cycles
 SCF Done:  E(RB3LYP) =  -7252.18857128     A.U. after   25 cycles
 SCF Done:  E(RB3LYP) =  -7252.19466149     A.U. after   26 cycles
 SCF Done:  E(RB3LYP) =  -7252.24101323     A.U. after   21 cycles
 SCF Done:  E(RB3LYP) =  -7252.24103109     A.U. after   22 cycles
 SCF Done:  E(RB3LYP) =  -7252.24104918     A.U. after   18 cycles
 SCF Done:  E(RB3LYP) =  -7252.24109940     A.U. after   21 cycles
 SCF Done:  E(RB3LYP) =  -7252.24110448     A.U. after   18 cycles
 SCF Done:  E(RB3LYP) =  -7252.24110729     A.U. after   17 cycles
 SCF Done:  E(RB3LYP) =  -7252.24110782     A.U. after   15 cycles
 SCF Done:  E(RB3LYP) =  -7252.24110829     A.U. after   15 cycles
 SCF Done:  E(RB3LYP) =  -7252.24110844     A.U. after   15 cycles
 Optimization completed.
    -- Stationary point found.
 Normal termination of Gaussian 16 at Fri Dec  9 20:06:07 2022.

 ------------------------------------------------------------------
 #N Geom=AllCheck Guess=TCheck SCRF=Check GenChk RB3LYP/ChkBas Freq
 ------------------------------------------------------------------

 Structure from the checkpoint file:  "/home/chesagar/scratch/Gau-43716.chk"
 -------------------
 Title Card Required
 -------------------
 Charge =  0 Multiplicity = 1

                          Input orientation:
 ---------------------------------------------------------------------
 Center     Atomic      Atomic             Coordinates (Angstroms)
 Number     Number       Type             X           Y           Z
 ---------------------------------------------------------------------
      1         42           0        0.371000    2.311743   12.154930
      2         16           0        1.374772    4.167252   11.323959
      3         16           0       -1.530330    3.097797   13.080956
      4         16           0       -0.566600    0.995471   10.362587
      5         16           0        1.906522    0.192498   12.171932
      6         42           0       -2.177744    2.690001   10.750529
      7         16           0       -3.240105    1.556713    8.787091
      8         16           0       -1.637824    4.980885   10.037902
      9         42           0        0.169581    3.155494    9.582017
     10         16           0       -0.543045    2.950133    7.247331
     11         16           0        2.283595    1.957007    8.815454
     12         42           0        3.432739    1.161890   10.594878
     13         42           0       -2.569482    3.915156    8.182301
     14         16           0        4.581501    2.745679   11.851716
     15         16           0        4.811440   -0.319630   10.017989
     16         16           0       -4.948311    4.638617    8.331384
     17         16           0       -2.342730    5.610970    6.683965
     18         42           0       -5.000553    2.783708    9.601026
     19         16           0       -6.844290    1.742184    9.518752
     20         16           0       -4.428628    3.339184   11.688286
     21         42           0        3.291629    1.617806   13.428139
     22         16           0        4.503135    0.556805   14.794594
     23         16           0        1.651962    2.843762   14.330737
     24         42           0       -0.144573    5.439263    7.806696
     25          6           0       -0.153112    7.451536    8.159710
     26          6           0        1.846983    5.430425    8.314054
     27          6           0        0.578185    5.696844    5.935045
     28          8           0       -0.162946    8.585211    8.349806
     29          8           0        0.995354    5.829318    4.872719
     30          8           0        2.978119    5.532500    8.498876
 ---------------------------------------------------------------------

 SCF Done:  E(RB3LYP) =  -7252.24110844     A.U. after    1 cycles

 Alpha  occ. eigenvalues --  -88.94850 -88.93268 -88.92509 -88.91916 -88.91593
 Alpha  occ. eigenvalues --  -88.90986 -88.90949 -88.90926 -88.90797 -88.90528
 Alpha  occ. eigenvalues --  -88.89442 -88.88517 -88.88461 -88.88381 -88.88043
 Alpha  occ. eigenvalues --  -88.87735 -19.27134 -19.27086 -19.27019 -10.34645
 Alpha  occ. eigenvalues --  -10.34642 -10.34200  -8.02176  -8.00820  -7.99998
 Alpha  occ. eigenvalues --   -7.99460  -7.99233  -7.98692  -7.98561  -7.98513
 Alpha  occ. eigenvalues --   -7.98238  -7.98147  -7.97325  -7.96427  -7.96282
 Alpha  occ. eigenvalues --   -7.96101  -7.95811  -7.95673  -5.98193  -5.98133
 Alpha  occ. eigenvalues --   -5.98132  -5.96830  -5.96821  -5.96690  -5.96055
 Alpha  occ. eigenvalues --   -5.95927  -5.95904  -5.95466  -5.95447  -5.95347
 Alpha  occ. eigenvalues --   -5.95256  -5.95178  -5.95133  -5.94779  -5.94658
 Alpha  occ. eigenvalues --   -5.94642  -5.94638  -5.94495  -5.94484  -5.94424
 Alpha  occ. eigenvalues --   -5.94408  -5.94367  -5.94326  -5.94218  -5.94194
 Alpha  occ. eigenvalues --   -5.94084  -5.94070  -5.94043  -5.93311  -5.93249
 Alpha  occ. eigenvalues --   -5.93226  -5.92427  -5.92385  -5.92339  -5.92259
 Alpha  occ. eigenvalues --   -5.92229  -5.92193  -5.92123  -5.92030  -5.91946
 Alpha  occ. eigenvalues --   -5.91878  -5.91785  -5.91652  -5.91642  -5.91611
 Alpha  occ. eigenvalues --   -5.91523  -2.58580  -2.57874  -2.57248  -2.56952
 Alpha  occ. eigenvalues --   -2.56571  -2.55848  -2.55651  -2.52376  -1.61463
 Alpha  occ. eigenvalues --   -1.61021  -1.61004  -1.60684  -1.60566  -1.60204
 Alpha  occ. eigenvalues --   -1.60108  -1.59826  -1.59518  -1.59236  -1.59190
 Alpha  occ. eigenvalues --   -1.58932  -1.58827  -1.58636  -1.58516  -1.58271
 Alpha  occ. eigenvalues --   -1.57845  -1.57684  -1.57405  -1.57264  -1.57037
 Alpha  occ. eigenvalues --   -1.55268  -1.54864  -1.54358  -1.17348  -1.17283
 Alpha  occ. eigenvalues --   -1.17248  -0.78042  -0.76712  -0.75829  -0.74495
 Alpha  occ. eigenvalues --   -0.74262  -0.73895  -0.73501  -0.72669  -0.72266
 Alpha  occ. eigenvalues --   -0.72060  -0.71335  -0.70953  -0.70612  -0.70202
 Alpha  occ. eigenvalues --   -0.69671  -0.68998  -0.60999  -0.59729  -0.59669
 Alpha  occ. eigenvalues --   -0.51003  -0.50004  -0.49719  -0.49589  -0.49158
 Alpha  occ. eigenvalues --   -0.48863  -0.48369  -0.47764  -0.47608  -0.44994
 Alpha  occ. eigenvalues --   -0.44341  -0.44227  -0.43945  -0.42992  -0.42478
 Alpha  occ. eigenvalues --   -0.41647  -0.41181  -0.41063  -0.40806  -0.40545
 Alpha  occ. eigenvalues --   -0.40155  -0.39710  -0.39579  -0.39163  -0.38767
 Alpha  occ. eigenvalues --   -0.38658  -0.38520  -0.37773  -0.37636  -0.37450
 Alpha  occ. eigenvalues --   -0.37172  -0.36824  -0.36425  -0.36266  -0.35994
 Alpha  occ. eigenvalues --   -0.35871  -0.35509  -0.35282  -0.34949  -0.34651
 Alpha  occ. eigenvalues --   -0.34602  -0.34103  -0.33698  -0.33314  -0.33008
 Alpha  occ. eigenvalues --   -0.32649  -0.32522  -0.32073  -0.31649  -0.31286
 Alpha  occ. eigenvalues --   -0.30946  -0.30546  -0.29915  -0.29692  -0.29049
 Alpha  occ. eigenvalues --   -0.28816  -0.28510  -0.27897  -0.27761  -0.26868
 Alpha  occ. eigenvalues --   -0.26665  -0.26116  -0.25665  -0.25276  -0.24846
 Alpha virt. eigenvalues --   -0.19962  -0.18373  -0.17252  -0.16561  -0.16206
 Alpha virt. eigenvalues --   -0.16015  -0.14940  -0.14872  -0.14142  -0.13702
 Alpha virt. eigenvalues --   -0.13362  -0.13047  -0.12832  -0.12584  -0.12362

 Mulliken charges:
               1
     1  Mo  -0.243922
     2  S    0.246500
     3  S    0.090181
     4  S    0.262129
     5  S    0.012356
     6  Mo  -0.377617
     7  S    0.133665
     8  S    0.363264
     9  Mo  -0.555002
    10  S    0.233274
    11  S   -0.041688
    12  Mo   0.231510
    13  Mo  -0.294348
    14  S   -0.015329
    15  S   -0.165915
    16  S   -0.002577
    17  S    0.144999
    18  Mo   0.284514
    19  S   -0.188351
    20  S    0.008783
    21  Mo   0.239206
    22  S   -0.214353
    23  S   -0.054217
    24  Mo  -0.158984
    25  C    0.221923
    26  C    0.226249
    27  C    0.249478
    28  O   -0.214674
    29  O   -0.212945
    30  O   -0.208106
 Sum of Mulliken charges =  -0.00000

 Dipole moment (field-independent basis, Debye):
    X=             -2.7944    Y=              1.2982    Z=             -1.8293  Tot=              3.5833
 Quadrupole moment (field-independent basis, Debye-Ang):
   XX=           -441.6491   YY=           -414.6772   ZZ=           -471.7411
   XY=             -1.7989   XZ=            -33.5136   YZ=              5.5057

  Exact polarizability:    1036.659     -91.317     605.902     150.406    -161.561     724.493
 Approx polarizability:    2991.304     -30.229    1990.261     251.235    -453.159    2417.785

                      1                      2                      3
                      A                      A                      A
 Frequencies --     29.0957                30.6854                39.2696
 Red. masses --     29.0035                25.4084                25.3420
 Frc consts  --      0.0145                 0.0141                 0.0230
 IR Inten    --      0.1492                 0.0675                 0.7071

                      4                      5                      6
                      A                      A                      A
 Frequencies --     43.1098                51.2681                53.9497
 Red. masses --     21.9741                25.6107                28.5959
 Frc consts  --      0.0241                 0.0397                 0.0490
 IR Inten    --      0.2046                 0.0450                 0.6778

                      7                      8                      9
                      A                      A                      A
 Frequencies --     65.0179                68.3156                71.1614
 Red. masses --     25.1639                30.9903                24.5045
 Frc consts  --      0.0627                 0.0852                 0.0731
 IR Inten    --      0.6913                 0.2050                 4.6652

                     10                     11                     12
                      A                      A                      A
 Frequencies --     73.7634                78.8087                82.0932
 Red. masses --     37.9285                21.4994                28.8790
 Frc consts  --      0.1216                 0.0787                 0.1147
 IR Inten    --      0.4328                 0.0898                 0.7790

                     13                     14                     15
                      A                      A                      A
 Frequencies --     85.6518                91.2134                93.4728
 Red. masses --     25.6571                32.6669                45.9998
 Frc consts  --      0.1109                 0.1601                 0.2368
 IR Inten    --      0.5824                 0.5908                 0.7640

                     16                     17                     18
                      A                      A                      A
 Frequencies --     98.3673               100.9072               103.6018
 Red. masses --     26.2629                22.3145                39.4896
 Frc consts  --      0.1497                 0.1339                 0.2497
 IR Inten    --      2.8980                 2.1174                 1.0568

                     19                     20                     21
                      A                      A                      A
 Frequencies --    109.2087               112.1116               117.8183
 Red. masses --     34.5243                38.1649                38.6409
 Frc consts  --      0.2426                 0.2826                 0.3160
 IR Inten    --      2.2037                 8.8507                 1.7370

                     22                     23                     24
                      A                      A                      A
 Frequencies --    119.8281               128.3859               134.3455
 Red. masses --     36.3994                34.3580                34.9528
 Frc consts  --      0.3079                 0.3337                 0.3717
 IR Inten    --      0.8416                 4.0916                 0.8036

                     25                     26                     27
                      A                      A                      A
 Frequencies --    139.0251               143.9942               147.5838
 Red. masses --     44.6740                43.4807                43.9879
 Frc consts  --      0.5087                 0.5312                 0.5645
 IR Inten    --      4.8810                 0.1909                 2.1272

                     28                     29                     30
                      A                      A                      A
 Frequencies --    153.6271               158.8280               163.2156
 Red. masses --     45.1618                37.2814                43.7009
 Frc consts  --      0.6280                 0.5541                 0.6859
 IR Inten    --      0.0505                 0.3278                 2.1991

                     31                     32                     33
                      A                      A                      A
 Frequencies --    166.3400               173.4468               176.1818
 Red. masses --     43.5828                37.6232                42.2281
 Frc consts  --      0.7105                 0.6669                 0.7723
 IR Inten    --      0.1745                 0.9102                 1.0612

                     34                     35                     36
                      A                      A                      A
 Frequencies --    179.8657               187.0348               188.5632
 Red. masses --     42.0872                43.5462                47.3277
 Frc consts  --      0.8022                 0.8975                 0.9915
 IR Inten    --      1.3811                11.3140                 1.7645

                     37                     38                     39
                      A                      A                      A
 Frequencies --    196.8670               209.5586               215.5801
 Red. masses --     44.8109                43.8538                37.0368
 Frc consts  --      1.0232                 1.1347                 1.0141
 IR Inten    --      7.8656                 4.0593                 1.2245

                     40                     41                     42
                      A                      A                      A
 Frequencies --    217.6042               235.2664               242.2021
 Red. masses --     34.6188                35.1479                35.4542
 Frc consts  --      0.9658                 1.1462                 1.2254
 IR Inten    --      0.1239                 2.9355                 0.9547

                     43                     44                     45
                      A                      A                      A
 Frequencies --    243.2637               249.8073               252.8497
 Red. masses --     36.8293                34.5949                34.6546
 Frc consts  --      1.2841                 1.2720                 1.3054
 IR Inten    --     12.6164                 8.6506                 3.4096

                     46                     47                     48
                      A                      A                      A
 Frequencies --    267.7986               273.7522               278.0471
 Red. masses --     34.5873                36.4553                35.8741
 Frc consts  --      1.4614                 1.6096                 1.6341
 IR Inten    --     11.5541                39.5729                 9.6114

                     49                     50                     51
                      A                      A                      A
 Frequencies --    284.2638               295.8883               300.9494
 Red. masses --     41.8881                38.3592                37.1272
 Frc consts  --      1.9943                 1.9787                 1.9812
 IR Inten    --      2.4065                11.5581                 3.1102

                     52                     53                     54
                      A                      A                      A
 Frequencies --    302.6665               307.9301               330.7134
 Red. masses --     36.2335                42.8762                41.9264
 Frc consts  --      1.9556                 2.3954                 2.7017
 IR Inten    --      3.7129                 4.4574                 1.9167

                     55                     56                     57
                      A                      A                      A
 Frequencies --    336.2220               346.5082               368.7613
 Red. masses --     45.0488                37.5211                31.8618
 Frc consts  --      3.0004                 2.6543                 2.5528
 IR Inten    --      5.5596                 0.3697                 7.6389

                     58                     59                     60
                      A                      A                      A
 Frequencies --    378.2712               393.8928               397.0898
 Red. masses --     14.8395                27.3595                15.9822
 Frc consts  --      1.2511                 2.5010                 1.4848
 IR Inten    --      6.9085                 9.7923                21.0868

                     61                     62                     63
                      A                      A                      A
 Frequencies --    397.6033               407.3277               411.9908
 Red. masses --     27.5334                24.6878                18.5449
 Frc consts  --      2.5645                 2.4134                 1.8546
 IR Inten    --     17.0778                17.3093                 7.5089

                     64                     65                     66
                      A                      A                      A
 Frequencies --    415.1025               421.8310               424.9374
 Red. masses --     30.8655                17.2990                34.7512
 Frc consts  --      3.1335                 1.8136                 3.6972
 IR Inten    --     22.4611                51.8570                 2.7190

                     67                     68                     69
                      A                      A                      A
 Frequencies --    430.9678               432.1010               438.1713
 Red. masses --     30.4011                33.6479                36.9750
 Frc consts  --      3.3268                 3.7015                 4.1826
 IR Inten    --      1.7843                 0.8980                 1.6502

                     70                     71                     72
                      A                      A                      A
 Frequencies --    447.5732               451.4148               452.7410
 Red. masses --     18.6008                33.8360                37.9210
 Frc consts  --      2.1954                 4.0624                 4.5796
 IR Inten    --      0.2249                38.5016                11.9894

                     73                     74                     75
                      A                      A                      A
 Frequencies --    458.4545               463.7114               472.4649
 Red. masses --     38.3569                16.5197                38.5445
 Frc consts  --      4.7499                 2.0929                 5.0693
 IR Inten    --      3.3363                36.9515                 6.7225

                     76                     77                     78
                      A                      A                      A
 Frequencies --    500.7047               522.8419               550.1684
 Red. masses --     13.2139                13.1079                13.9002
 Frc consts  --      1.9518                 2.1112                 2.4789
 IR Inten    --      8.0627                11.4657                65.8725

                     79                     80                     81
                      A                      A                      A
 Frequencies --    564.7584               569.2137               573.9805
 Red. masses --     39.8450                39.5946                39.3225
 Frc consts  --      7.4877                 7.5585                 7.6328
 IR Inten    --    204.8694                75.8345               152.0763

                     82                     83                     84
                      A                      A                      A
 Frequencies --   2067.2985              2083.1432              2115.0839
 Red. masses --     13.4067                13.4016                13.3777
 Frc consts  --     33.7581                34.2645                35.2602
 IR Inten    --    392.8071               686.1152              2561.7947

 - Thermochemistry -
 -------------------
 Temperature   298.150 Kelvin.  Pressure   1.00000 Atm.
 Atom     1 has atomic number 42 and mass  97.90550

 Molecular mass:  1378.78189 amu.
 Principal axes and moments of inertia in atomic units:
                           1         2         3
     Eigenvalues --  ******************************
           X            0.84507  -0.53427  -0.02031
           Y           -0.29798  -0.50217   0.81181
           Z            0.44393   0.67998   0.58357
 This molecule is an asymmetric top.
 Rotational symmetry number  1.
 Warning -- assumption of classical behavior for rotation
           may cause significant error
 Rotational temperatures (Kelvin)      0.00327     0.00147     0.00120
 Rotational constants (GHZ):           0.06822     0.03069     0.02510
 Zero-point vibrational energy     161247.6 (Joules/Mol)
                                   38.53911 (Kcal/Mol)
 Warning -- explicit consideration of  81 degrees of freedom as
           vibrations may cause significant error
 Vibrational temperatures:     41.86    44.15    56.50    62.03    73.76
          (Kelvin)             77.62    93.55    98.29   102.39   106.13
                              113.39   118.11   123.23   131.24   134.49
                              141.53   145.18   149.06   157.13   161.30
                              169.51   172.41   184.72   193.29   200.03
                              207.18   212.34   221.04   228.52   234.83
                              239.33   249.55   253.49   258.79   269.10
                              271.30   283.25   301.51   310.17   313.08
                              338.50   348.47   350.00   359.42   363.79
                              385.30   393.87   400.05   408.99   425.72
                              433.00   435.47   443.04   475.82   483.75
                              498.55   530.57   544.25   566.72   571.32
                              572.06   586.05   592.76   597.24   606.92
                              611.39   620.07   621.70   630.43   643.96
                              649.49   651.39   659.61   667.18   679.77
                              720.40   752.25   791.57   812.56   818.97
                              825.83  2974.38  2997.18  3043.13

 Zero-point correction=                           0.061416 (Hartree/Particle)
 Thermal correction to Energy=                    0.106022
 Thermal correction to Enthalpy=                  0.106966
 Thermal correction to Gibbs Free Energy=        -0.019429
 Sum of electronic and zero-point Energies=          -7252.179692
 Sum of electronic and thermal Energies=             -7252.135087
 Sum of electronic and thermal Enthalpies=           -7252.134143
 Sum of electronic and thermal Free Energies=        -7252.260537

                     E (Thermal)             CV                S
                      KCal/Mol        Cal/Mol-Kelvin    Cal/Mol-Kelvin
 Total                   66.530            143.899            266.020
 Electronic               0.000              0.000              0.000
 Translational            0.889              2.981             47.539
 Rotational               0.889              2.981             39.944
 Vibrational             64.752            137.937            178.537
 Vibration     1          0.593              1.984              5.890
 Vibration     2          0.594              1.984              5.785
 Vibration     3          0.594              1.981              5.296
 Vibration     4          0.595              1.980              5.111
 Vibration     5          0.596              1.977              4.768
 Vibration     6          0.596              1.976              4.667
 Vibration     7          0.597              1.971              4.299
 Vibration     8          0.598              1.969              4.201
 Vibration     9          0.598              1.968              4.121
 Vibration    10          0.599              1.966              4.050
 Vibration    11          0.600              1.963              3.920
 Vibration    12          0.600              1.961              3.840
 Vibration    13          0.601              1.959              3.757
 Vibration    14          0.602              1.955              3.634
 Vibration    15          0.602              1.954              3.586
 Vibration    16          0.604              1.950              3.486
 Vibration    17          0.604              1.948              3.437
 Vibration    18          0.605              1.946              3.385
 Vibration    19          0.606              1.942              3.283
 Vibration    20          0.607              1.939              3.232
 Vibration    21          0.608              1.935              3.136
 Vibration    22          0.609              1.933              3.103
 Vibration    23          0.611              1.925              2.970
 Vibration    24          0.613              1.919              2.883
 Vibration    25          0.615              1.914              2.817
 Vibration    26          0.616              1.909              2.750
 Vibration    27          0.617              1.905              2.703
 Vibration    28          0.619              1.899              2.627
 Vibration    29          0.621              1.893              2.564
 Vibration    30          0.623              1.888              2.512
 Vibration    31          0.624              1.884              2.476
 Vibration    32          0.627              1.875              2.398
 Vibration    33          0.628              1.872              2.368
 Vibration    34          0.629              1.867              2.330
 Vibration    35          0.632              1.858              2.257
 Vibration    36          0.633              1.856              2.242
 Vibration    37          0.636              1.844              2.162
 Vibration    38          0.642              1.826              2.048
 Vibration    39          0.645              1.817              1.996
 Vibration    40          0.646              1.814              1.979
 Vibration    41          0.655              1.787              1.838
 Vibration    42          0.658              1.776              1.787
 Vibration    43          0.659              1.774              1.779
 Vibration    44          0.663              1.763              1.732
 Vibration    45          0.664              1.758              1.711
 Vibration    46          0.673              1.732              1.610
 Vibration    47          0.676              1.722              1.572
 Vibration    48          0.679              1.714              1.546
 Vibration    49          0.683              1.703              1.508
 Vibration    50          0.690              1.681              1.440
 Vibration    51          0.693              1.672              1.412
 Vibration    52          0.694              1.669              1.402
 Vibration    53          0.698              1.659              1.373
 Vibration    54          0.713              1.614              1.257
 Vibration    55          0.717              1.603              1.230
 Vibration    56          0.725              1.582              1.182
 Vibration    57          0.741              1.536              1.085
 Vibration    58          0.749              1.516              1.046
 Vibration    59          0.761              1.483              0.985
 Vibration    60          0.764              1.476              0.973
 Vibration    61          0.764              1.475              0.971
 Vibration    62          0.772              1.454              0.936
 Vibration    63          0.776              1.444              0.920
 Vibration    64          0.779              1.437              0.909
 Vibration    65          0.784              1.423              0.886
 Vibration    66          0.787              1.416              0.875
 Vibration    67          0.792              1.403              0.855
 Vibration    68          0.793              1.400              0.852
 Vibration    69          0.798              1.387              0.832
 Vibration    70          0.807              1.366              0.803
 Vibration    71          0.810              1.358              0.792
 Vibration    72          0.811              1.355              0.788
 Vibration    73          0.816              1.342              0.771
 Vibration    74          0.821              1.331              0.755
 Vibration    75          0.829              1.311              0.731
 Vibration    76          0.856              1.248              0.656
 Vibration    77          0.878              1.199              0.603
 Vibration    78          0.905              1.139              0.544
 Vibration    79          0.921              1.108              0.514
 Vibration    80          0.925              1.098              0.506
 Vibration    81          0.930              1.088              0.497

                           ! Non-Optimized Parameters !
 Normal termination of Gaussian 16 at Fri Dec  9 20:16:19 2022.
