 Gaussian 16, Revision C.01,
 Gaussian 16:  ES64L-G16RevC.01  3-Jul-2019

 ---------------------------------------
 # opt freq b3lyp/gen nosymm pseudo=read
 ---------------------------------------

 -------------------
 Title Card Required
 -------------------
 Symbolic Z-matrix:
 Charge =  0 Multiplicity = 1

 SCF Done:  E(RB3LYP) =  -7138.86894838     A.U. after   36 cycles
 SCF Done:  E(RB3LYP) =  -7138.87164679     A.U. after   24 cycles
 SCF Done:  E(RB3LYP) =  -7138.87270273     A.U. after   24 cycles
 SCF Done:  E(RB3LYP) =  -7138.87309875     A.U. after   21 cycles
 SCF Done:  E(RB3LYP) =  -7138.87347862     A.U. after   23 cycles
 SCF Done:  E(RB3LYP) =  -7138.87364500     A.U. after   23 cycles
 SCF Done:  E(RB3LYP) =  -7138.87374028     A.U. after   22 cycles
 SCF Done:  E(RB3LYP) =  -7138.87397078     A.U. after   24 cycles
 SCF Done:  E(RB3LYP) =  -7138.87420421     A.U. after   24 cycles
 SCF Done:  E(RB3LYP) =  -7138.87436110     A.U. after   23 cycles
 SCF Done:  E(RB3LYP) =  -7138.87510241     A.U. after   22 cycles
 SCF Done:  E(RB3LYP) =  -7138.87586317     A.U. after   23 cycles
 SCF Done:  E(RB3LYP) =  -7138.87591071     A.U. after   19 cycles
 SCF Done:  E(RB3LYP) =  -7138.87590873     A.U. after   18 cycles
 SCF Done:  E(RB3LYP) =  -7138.87593649     A.U. after   19 cycles
 SCF Done:  E(RB3LYP) =  -7138.87594105     A.U. after   16 cycles
 SCF Done:  E(RB3LYP) =  -7138.87594216     A.U. after   15 cycles
 SCF Done:  E(RB3LYP) =  -7138.87594265     A.U. after   14 cycles
 SCF Done:  E(RB3LYP) =  -7138.87594287     A.U. after   14 cycles
 Optimization completed.
    -- Stationary point found.
 Normal termination of Gaussian 16 at Sat Dec 10 09:14:48 2022.

 ------------------------------------------------------------------
 #N Geom=AllCheck Guess=TCheck SCRF=Check GenChk RB3LYP/ChkBas Freq
 ------------------------------------------------------------------

 Structure from the checkpoint file:  "/home/chesagar/scratch/Gau-82033.chk"
 -------------------
 Title Card Required
 -------------------
 Charge =  0 Multiplicity = 1

                          Input orientation:
 ---------------------------------------------------------------------
 Center     Atomic      Atomic             Coordinates (Angstroms)
 Number     Number       Type             X           Y           Z
 ---------------------------------------------------------------------
      1         42           0        0.402270    2.322894   12.173472
      2         16           0        1.370874    4.184017   11.295885
      3         16           0       -1.498463    3.088821   13.113883
      4         16           0       -0.539297    0.958725   10.415438
      5         16           0        1.915108    0.198957   12.293094
      6         42           0       -2.139810    2.658278   10.785199
      7         16           0       -3.237195    1.505710    8.873379
      8         16           0       -1.614044    4.915796    9.964082
      9         42           0        0.192243    3.096693    9.589161
     10         16           0       -0.548247    2.954186    7.235705
     11         16           0        2.275348    1.811155    8.876973
     12         42           0        3.444713    1.090820   10.671809
     13         42           0       -2.707861    3.788619    8.218802
     14         16           0        4.586994    2.736319   11.851883
     15         16           0        4.820119   -0.415315   10.152717
     16         16           0       -4.879747    4.703018    8.301457
     17         16           0       -2.260120    5.461030    6.513422
     18         42           0       -4.978200    2.836003    9.641059
     19         16           0       -6.819333    1.815987    9.353427
     20         16           0       -4.423687    3.316471   11.742535
     21         42           0        3.312410    1.669434   13.482926
     22         16           0        4.534366    0.668995   14.885685
     23         16           0        1.680904    2.936524   14.337887
     24         42           0       -0.284514    5.346393    7.739808
     25          6           0        1.755149    5.089923    8.021544
     26          6           0        0.539231    6.164887    6.074494
     27          8           0        0.997017    6.647494    5.139010
     28          8           0        2.906075    5.067641    8.021110
 ---------------------------------------------------------------------

 SCF Done:  E(RB3LYP) =  -7138.87594287     A.U. after    2 cycles

 Alpha  occ. eigenvalues --  -88.95213 -88.92545 -88.92488 -88.91988 -88.91548
 Alpha  occ. eigenvalues --  -88.91238 -88.90793 -88.90593 -88.90315 -88.89828
 Alpha  occ. eigenvalues --  -88.88427 -88.88420 -88.88374 -88.88064 -88.88001
 Alpha  occ. eigenvalues --  -88.87643 -19.28519 -19.27916 -10.35980 -10.35628
 Alpha  occ. eigenvalues --   -8.02609  -8.00096  -7.99986  -7.99556  -7.99188
 Alpha  occ. eigenvalues --   -7.98561  -7.98432  -7.98169  -7.98023  -7.97565
 Alpha  occ. eigenvalues --   -7.96394  -7.96182  -7.96104  -7.95933  -7.95770
 Alpha  occ. eigenvalues --   -7.95581  -5.98614  -5.98593  -5.98541  -5.96104
 Alpha  occ. eigenvalues --   -5.96095  -5.96033  -5.95972  -5.95916  -5.95901
 Alpha  occ. eigenvalues --   -5.95559  -5.95537  -5.95446  -5.95211  -5.95132
 Alpha  occ. eigenvalues --   -5.95087  -5.94625  -5.94535  -5.94503  -5.94456
 Alpha  occ. eigenvalues --   -5.94351  -5.94346  -5.94302  -5.94086  -5.94042
 Alpha  occ. eigenvalues --   -5.94002  -5.93972  -5.93858  -5.93650  -5.93511
 Alpha  occ. eigenvalues --   -5.93379  -5.92395  -5.92349  -5.92244  -5.92226
 Alpha  occ. eigenvalues --   -5.92193  -5.92124  -5.92028  -5.92025  -5.91967
 Alpha  occ. eigenvalues --   -5.91954  -5.91873  -5.91837  -5.91776  -5.91745
 Alpha  occ. eigenvalues --   -5.91571  -5.91561  -5.91551  -5.91430  -2.57290
 Alpha  occ. eigenvalues --   -2.57019  -2.56971  -2.56661  -2.56473  -2.55772
 Alpha  occ. eigenvalues --   -2.55563  -2.54899  -1.60874  -1.60541  -1.60203
 Alpha  occ. eigenvalues --   -1.60085  -1.59891  -1.59494  -1.59241  -1.59135
 Alpha  occ. eigenvalues --   -1.58983  -1.58905  -1.58855  -1.58736  -1.58433
 Alpha  occ. eigenvalues --   -1.58420  -1.58300  -1.58110  -1.57781  -1.57644
 Alpha  occ. eigenvalues --   -1.57491  -1.57321  -1.57175  -1.57102  -1.56954
 Alpha  occ. eigenvalues --   -1.56611  -1.18747  -1.18090  -0.78498  -0.76628
 Alpha  occ. eigenvalues --   -0.75503  -0.74590  -0.74251  -0.73898  -0.73084
 Alpha  occ. eigenvalues --   -0.72498  -0.71999  -0.71665  -0.71323  -0.70907
 Alpha  occ. eigenvalues --   -0.70172  -0.69639  -0.69314  -0.68909  -0.62266
 Alpha  occ. eigenvalues --   -0.60601  -0.52626  -0.50813  -0.50623  -0.50429
 Alpha  occ. eigenvalues --   -0.49822  -0.48164  -0.44982  -0.44260  -0.44135
 Alpha  occ. eigenvalues --   -0.44018  -0.43138  -0.42268  -0.41812  -0.41402
 Alpha  occ. eigenvalues --   -0.40922  -0.40559  -0.40441  -0.39815  -0.39524
 Alpha  occ. eigenvalues --   -0.39149  -0.38782  -0.38574  -0.38417  -0.37978
 Alpha  occ. eigenvalues --   -0.37652  -0.37565  -0.37237  -0.36803  -0.36731
 Alpha  occ. eigenvalues --   -0.36524  -0.36232  -0.35864  -0.35659  -0.35388
 Alpha  occ. eigenvalues --   -0.35067  -0.34779  -0.34604  -0.34295  -0.33904
 Alpha  occ. eigenvalues --   -0.33689  -0.33347  -0.33034  -0.32731  -0.32250
 Alpha  occ. eigenvalues --   -0.32086  -0.31613  -0.31079  -0.30974  -0.30295
 Alpha  occ. eigenvalues --   -0.29743  -0.29505  -0.29106  -0.28901  -0.28579
 Alpha  occ. eigenvalues --   -0.28060  -0.27476  -0.26904  -0.26633  -0.26074
 Alpha  occ. eigenvalues --   -0.25524  -0.25256  -0.24895
 Alpha virt. eigenvalues --   -0.18870  -0.18283  -0.17191  -0.16259  -0.16072
 Alpha virt. eigenvalues --   -0.15842  -0.15316  -0.14430  -0.14345  -0.13710
 Alpha virt. eigenvalues --   -0.13308  -0.12992  -0.12596  -0.12334  -0.12099

 Mulliken charges:
               1
     1  Mo  -0.240536
     2  S    0.236255
     3  S    0.084083
     4  S    0.267677
     5  S    0.016825
     6  Mo  -0.328546
     7  S    0.136902
     8  S    0.312299
     9  Mo  -0.555641
    10  S    0.241001
    11  S   -0.044782
    12  Mo   0.238496
    13  Mo  -0.222728
    14  S   -0.021794
    15  S   -0.168332
    16  S    0.013770
    17  S    0.106044
    18  Mo   0.255595
    19  S   -0.220646
    20  S   -0.030079
    21  Mo   0.240156
    22  S   -0.216266
    23  S   -0.056231
    24  Mo  -0.060220
    25  C    0.210872
    26  C    0.198994
    27  O   -0.194720
    28  O   -0.198448
 Sum of Mulliken charges =  -0.00000

 Dipole moment (field-independent basis, Debye):
    X=             -1.0587    Y=              3.1410    Z=             -2.3341  Tot=              4.0540
 Quadrupole moment (field-independent basis, Debye-Ang):
   XX=           -443.9154   YY=           -384.9946   ZZ=           -472.3174
   XY=              2.9513   XZ=            -18.7418   YZ=             20.4222

  Exact polarizability:    1033.006     -92.804     533.882     153.772    -144.548     713.648
 Approx polarizability:    2913.151     -68.510    1672.334     241.095    -310.033    2264.716

                      1                      2                      3
                      A                      A                      A
 Frequencies --     30.8084                31.4014                36.8129
 Red. masses --     37.4107                27.9846                21.3202
 Frc consts  --      0.0209                 0.0163                 0.0170
 IR Inten    --      0.1537                 0.1853                 0.3215

                      4                      5                      6
                      A                      A                      A
 Frequencies --     47.8359                54.2294                57.7613
 Red. masses --     34.1649                22.9394                27.2429
 Frc consts  --      0.0461                 0.0397                 0.0536
 IR Inten    --      0.1344                 0.5588                 0.1763

                      7                      8                      9
                      A                      A                      A
 Frequencies --     66.8887                72.4313                77.9566
 Red. masses --     29.9176                43.1514                31.7007
 Frc consts  --      0.0789                 0.1334                 0.1135
 IR Inten    --      0.4500                 0.9753                 0.4376

                     10                     11                     12
                      A                      A                      A
 Frequencies --     79.8945                83.2876                90.4174
 Red. masses --     24.3481                34.3463                40.3026
 Frc consts  --      0.0916                 0.1404                 0.1941
 IR Inten    --      0.4105                 1.1099                 0.3923

                     13                     14                     15
                      A                      A                      A
 Frequencies --     94.5854                98.3711               101.2874
 Red. masses --     45.9119                39.1379                40.1962
 Frc consts  --      0.2420                 0.2231                 0.2430
 IR Inten    --      1.8249                 1.4060                 3.9361

                     16                     17                     18
                      A                      A                      A
 Frequencies --    105.6174               112.8292               116.1467
 Red. masses --     31.3429                26.6664                38.7779
 Frc consts  --      0.2060                 0.2000                 0.3082
 IR Inten    --      0.8422                 0.1582                 0.8348

                     19                     20                     21
                      A                      A                      A
 Frequencies --    116.6075               122.1650               125.4110
 Red. masses --     36.3119                28.7460                43.1217
 Frc consts  --      0.2909                 0.2528                 0.3996
 IR Inten    --      2.2783                 0.5945                 5.0845

                     22                     23                     24
                      A                      A                      A
 Frequencies --    135.9657               142.1218               143.6619
 Red. masses --     36.1879                38.2252                36.8887
 Frc consts  --      0.3942                 0.4549                 0.4486
 IR Inten    --      0.6146                 0.6342                 0.3503

                     25                     26                     27
                      A                      A                      A
 Frequencies --    145.8074               152.5320               159.4605
 Red. masses --     42.6114                43.0076                43.6556
 Frc consts  --      0.5337                 0.5895                 0.6540
 IR Inten    --      0.5572                 0.3975                 0.0953

                     28                     29                     30
                      A                      A                      A
 Frequencies --    164.0610               167.5686               172.3150
 Red. masses --     39.8562                46.1558                41.5172
 Frc consts  --      0.6321                 0.7636                 0.7263
 IR Inten    --      0.4056                 0.7470                 0.4413

                     31                     32                     33
                      A                      A                      A
 Frequencies --    176.3350               184.8359               190.6909
 Red. masses --     36.4642                47.3545                48.9090
 Frc consts  --      0.6680                 0.9532                 1.0479
 IR Inten    --      0.4507                 1.3866                 6.5996

                     34                     35                     36
                      A                      A                      A
 Frequencies --    200.9693               206.9402               212.4049
 Red. masses --     47.0936                48.9630                37.4063
 Frc consts  --      1.1207                 1.2354                 0.9943
 IR Inten    --      3.0807                 1.3720                 2.8545

                     37                     38                     39
                      A                      A                      A
 Frequencies --    221.8574               226.5940               230.6521
 Red. masses --     39.6046                37.6565                32.5149
 Frc consts  --      1.1485                 1.1392                 1.0192
 IR Inten    --      0.4375                 1.2961                 3.4102

                     40                     41                     42
                      A                      A                      A
 Frequencies --    249.1872               255.7395               265.9280
 Red. masses --     35.6298                35.1713                38.5636
 Frc consts  --      1.3035                 1.3553                 1.6068
 IR Inten    --     12.5121                 0.6670                 0.8937

                     43                     44                     45
                      A                      A                      A
 Frequencies --    274.1017               277.3204               284.9988
 Red. masses --     37.7942                37.1906                37.4577
 Frc consts  --      1.6730                 1.6852                 1.7926
 IR Inten    --     27.0041                 3.8068                 0.3452

                     46                     47                     48
                      A                      A                      A
 Frequencies --    290.3802               297.5177               301.2982
 Red. masses --     42.5626                37.1856                36.6746
 Frc consts  --      2.1145                 1.9393                 1.9616
 IR Inten    --      1.1510                 6.0701                 0.4146

                     49                     50                     51
                      A                      A                      A
 Frequencies --    303.1859               314.6982               317.2164
 Red. masses --     37.0138                40.7455                39.1427
 Frc consts  --      2.0046                 2.3775                 2.3207
 IR Inten    --      6.6646                 1.8791                 3.9821

                     52                     53                     54
                      A                      A                      A
 Frequencies --    331.3234               337.6482               344.8888
 Red. masses --     42.3998                45.3990                34.3960
 Frc consts  --      2.7423                 3.0495                 2.4106
 IR Inten    --      1.6454                 8.2441                 1.6815

                     55                     56                     57
                      A                      A                      A
 Frequencies --    355.6760               370.1974               394.7510
 Red. masses --     29.6996                17.3467                14.0907
 Frc consts  --      2.2137                 1.4007                 1.2937
 IR Inten    --      1.3498                 3.6295                 7.0116

                     58                     59                     60
                      A                      A                      A
 Frequencies --    396.5249               398.3677               401.1807
 Red. masses --     32.3030                28.9071                30.5975
 Frc consts  --      2.9925                 2.7029                 2.9015
 IR Inten    --      9.0284                 5.4439                 5.2802

                     61                     62                     63
                      A                      A                      A
 Frequencies --    408.0154               412.0976               423.2471
 Red. masses --     17.4394                36.2307                31.1190
 Frc consts  --      1.7105                 3.6252                 3.2845
 IR Inten    --     43.8072                48.7822                 1.4854

                     64                     65                     66
                      A                      A                      A
 Frequencies --    427.0972               430.1607               433.1468
 Red. masses --     20.0002                24.2667                32.9408
 Frc consts  --      2.1495                 2.6456                 3.6413
 IR Inten    --      4.8452                 6.4215                 4.6778

                     67                     68                     69
                      A                      A                      A
 Frequencies --    439.8816               450.5474               451.8327
 Red. masses --     38.5679                33.7498                38.9006
 Frc consts  --      4.3969                 4.0365                 4.6791
 IR Inten    --      2.1982                23.4304                 6.1126

                     70                     71                     72
                      A                      A                      A
 Frequencies --    457.3451               462.9387               474.4012
 Red. masses --     28.9966                19.5938                37.3493
 Frc consts  --      3.5734                 2.4741                 4.9525
 IR Inten    --     20.6481                21.9621                 8.2886

                     73                     74                     75
                      A                      A                      A
 Frequencies --    529.5074               559.2386               569.1223
 Red. masses --     13.2914                39.9027                39.6422
 Frc consts  --      2.1957                 7.3527                 7.5652
 IR Inten    --     13.2427               198.0460                82.3413

                     76                     77                     78
                      A                      A                      A
 Frequencies --    573.9938              2059.8997              2111.0080
 Red. masses --     39.3974                13.4176                13.3897
 Frc consts  --      7.6477                33.5442                35.1560
 IR Inten    --    155.8789               351.3756              1921.0578

 - Thermochemistry -
 -------------------
 Temperature   298.150 Kelvin.  Pressure   1.00000 Atm.
 Atom     1 has atomic number 42 and mass  97.90550

 Molecular mass:  1350.78698 amu.
 Principal axes and moments of inertia in atomic units:
                           1         2         3
     Eigenvalues --  ******************************
           X            0.85127  -0.52439   0.01897
           Y           -0.27607  -0.41684   0.86604
           Z            0.44624   0.74247   0.49961
 This molecule is an asymmetric top.
 Rotational symmetry number  1.
 Warning -- assumption of classical behavior for rotation
           may cause significant error
 Rotational temperatures (Kelvin)      0.00365     0.00150     0.00123
 Rotational constants (GHZ):           0.07612     0.03119     0.02560
 Zero-point vibrational energy     139922.0 (Joules/Mol)
                                   33.44216 (Kcal/Mol)
 Warning -- explicit consideration of  76 degrees of freedom as
           vibrations may cause significant error
 Vibrational temperatures:     44.33    45.18    52.97    68.83    78.02
          (Kelvin)             83.11    96.24   104.21   112.16   114.95
                              119.83   130.09   136.09   141.53   145.73
                              151.96   162.34   167.11   167.77   175.77
                              180.44   195.62   204.48   206.70   209.78
                              219.46   229.43   236.05   241.09   247.92
                              253.71   265.94   274.36   289.15   297.74
                              305.60   319.20   326.02   331.86   358.52
                              367.95   382.61   394.37   399.00   410.05
                              417.79   428.06   433.50   436.22   452.78
                              456.40   476.70   485.80   496.22   511.74
                              532.63   567.96   570.51   573.16   577.21
                              587.04   592.92   608.96   614.50   618.91
                              623.20   632.89   648.24   650.09   658.02
                              666.07   682.56   761.84   804.62   818.84
                              825.85  2963.74  3037.27

 Zero-point correction=                           0.053293 (Hartree/Particle)
 Thermal correction to Energy=                    0.095379
 Thermal correction to Enthalpy=                  0.096324
 Thermal correction to Gibbs Free Energy=        -0.024262
 Sum of electronic and zero-point Energies=          -7138.822649
 Sum of electronic and thermal Energies=             -7138.780564
 Sum of electronic and thermal Enthalpies=           -7138.779619
 Sum of electronic and thermal Free Energies=        -7138.900204

                     E (Thermal)             CV                S
                      KCal/Mol        Cal/Mol-Kelvin    Cal/Mol-Kelvin
 Total                   59.851            135.948            253.793
 Electronic               0.000              0.000              0.000
 Translational            0.889              2.981             47.478
 Rotational               0.889              2.981             39.800
 Vibrational             58.074            129.986            166.515
 Vibration     1          0.594              1.984              5.777
 Vibration     2          0.594              1.983              5.739
 Vibration     3          0.594              1.982              5.424
 Vibration     4          0.595              1.978              4.905
 Vibration     5          0.596              1.976              4.657
 Vibration     6          0.596              1.974              4.532
 Vibration     7          0.598              1.970              4.243
 Vibration     8          0.599              1.967              4.086
 Vibration     9          0.599              1.964              3.942
 Vibration    10          0.600              1.963              3.893
 Vibration    11          0.600              1.961              3.812
 Vibration    12          0.602              1.956              3.651
 Vibration    13          0.603              1.953              3.563
 Vibration    14          0.604              1.950              3.486
 Vibration    15          0.604              1.948              3.429
 Vibration    16          0.605              1.945              3.348
 Vibration    17          0.607              1.939              3.220
 Vibration    18          0.608              1.936              3.164
 Vibration    19          0.608              1.936              3.156
 Vibration    20          0.610              1.931              3.066
 Vibration    21          0.610              1.928              3.015
 Vibration    22          0.614              1.917              2.860
 Vibration    23          0.616              1.911              2.775
 Vibration    24          0.616              1.909              2.755
 Vibration    25          0.617              1.907              2.726
 Vibration    26          0.619              1.900              2.640
 Vibration    27          0.621              1.892              2.556
 Vibration    28          0.623              1.887              2.502
 Vibration    29          0.624              1.882              2.463
 Vibration    30          0.626              1.877              2.410
 Vibration    31          0.628              1.872              2.367
 Vibration    32          0.631              1.861              2.279
 Vibration    33          0.634              1.853              2.221
 Vibration    34          0.638              1.839              2.124
 Vibration    35          0.641              1.830              2.071
 Vibration    36          0.643              1.822              2.023
 Vibration    37          0.648              1.808              1.944
 Vibration    38          0.650              1.800              1.906
 Vibration    39          0.652              1.794              1.874
 Vibration    40          0.662              1.764              1.736
 Vibration    41          0.666              1.753              1.691
 Vibration    42          0.672              1.736              1.623
 Vibration    43          0.676              1.721              1.570
 Vibration    44          0.678              1.715              1.550
 Vibration    45          0.683              1.702              1.503
 Vibration    46          0.686              1.692              1.472
 Vibration    47          0.691              1.678              1.431
 Vibration    48          0.693              1.671              1.410
 Vibration    49          0.695              1.668              1.399
 Vibration    50          0.702              1.646              1.338
 Vibration    51          0.704              1.641              1.324
 Vibration    52          0.714              1.613              1.254
 Vibration    53          0.718              1.600              1.223
 Vibration    54          0.723              1.586              1.189
 Vibration    55          0.731              1.564              1.141
 Vibration    56          0.742              1.533              1.079
 Vibration    57          0.762              1.481              0.982
 Vibration    58          0.763              1.478              0.976
 Vibration    59          0.765              1.474              0.969
 Vibration    60          0.767              1.468              0.958
 Vibration    61          0.773              1.453              0.934
 Vibration    62          0.776              1.444              0.919
 Vibration    63          0.785              1.420              0.881
 Vibration    64          0.789              1.411              0.868
 Vibration    65          0.791              1.405              0.858
 Vibration    66          0.794              1.398              0.848
 Vibration    67          0.800              1.383              0.827
 Vibration    68          0.809              1.360              0.794
 Vibration    69          0.810              1.357              0.790
 Vibration    70          0.815              1.345              0.774
 Vibration    71          0.821              1.332              0.758
 Vibration    72          0.831              1.307              0.725
 Vibration    73          0.884              1.185              0.588
 Vibration    74          0.915              1.120              0.525
 Vibration    75          0.925              1.098              0.506
 Vibration    76          0.930              1.088              0.497

                           ! Non-Optimized Parameters !
 Normal termination of Gaussian 16 at Sat Dec 10 09:23:36 2022.
