 Gaussian 16, Revision C.01,
 Gaussian 16:  ES64L-G16RevC.01  3-Jul-2019

 --------------------------------
 # opt freq b3lyp/gen pseudo=read
 --------------------------------

 -------------------
 Title Card Required
 -------------------
 Symbolic Z-matrix:
 Charge =  0 Multiplicity = 1

 SCF Done:  E(RB3LYP) =  -747.174191107     A.U. after    9 cycles
 SCF Done:  E(RB3LYP) =  -747.358440499     A.U. after   10 cycles
 SCF Done:  E(RB3LYP) =  -747.564009573     A.U. after   10 cycles
 SCF Done:  E(RB3LYP) =  -747.622017014     A.U. after   10 cycles
 SCF Done:  E(RB3LYP) =  -747.626822771     A.U. after    9 cycles
 SCF Done:  E(RB3LYP) =  -747.627535332     A.U. after    9 cycles
 SCF Done:  E(RB3LYP) =  -747.627562077     A.U. after    8 cycles
 SCF Done:  E(RB3LYP) =  -747.627564952     A.U. after    7 cycles
 Optimization completed.
    -- Stationary point found.
 Normal termination of Gaussian 16 at Fri Sep  3 20:09:44 2021.

 ------------------------------------------------------------------
 #N Geom=AllCheck Guess=TCheck SCRF=Check GenChk RB3LYP/ChkBas Freq
 ------------------------------------------------------------------

 Structure from the checkpoint file:  "Mo_CO6.chk"
 -------------------
 Title Card Required
 -------------------
 Charge =  0 Multiplicity = 1

                         Standard orientation:
 ---------------------------------------------------------------------
 Center     Atomic      Atomic             Coordinates (Angstroms)
 Number     Number       Type             X           Y           Z
 ---------------------------------------------------------------------
      1         42           0        0.000000    0.000000    0.000000
      2          6           0        0.000000    0.000000    2.079376
      3          6           0       -0.000000    2.079376   -0.000000
      4          6           0       -2.079376    0.000000   -0.000000
      5          6           0        2.079376    0.000000    0.000000
      6          6           0        0.000000   -2.079376    0.000000
      7          6           0        0.000000   -0.000000   -2.079376
      8          8           0       -3.228628    0.000000   -0.000000
      9          8           0        0.000000    3.228628   -0.000000
     10          8           0        0.000000    0.000000   -3.228628
     11          8           0        3.228628    0.000000    0.000000
     12          8           0       -0.000000   -3.228628   -0.000000
     13          8           0       -0.000000    0.000000    3.228628
 ---------------------------------------------------------------------

 SCF Done:  E(RB3LYP) =  -747.627564952     A.U. after    1 cycles

 The electronic state is 1-A1G.
 Alpha  occ. eigenvalues --  -19.25031 -19.25031 -19.25028 -19.25028 -19.25028
 Alpha  occ. eigenvalues --  -19.25027 -10.32217 -10.32217 -10.32213 -10.32213
 Alpha  occ. eigenvalues --  -10.32213 -10.32205  -2.47898  -1.50579  -1.50579
 Alpha  occ. eigenvalues --   -1.50579  -1.15400  -1.15346  -1.15346  -1.15346
 Alpha  occ. eigenvalues --   -1.15342  -1.15342  -0.60336  -0.58033  -0.58033
 Alpha  occ. eigenvalues --   -0.57434  -0.57434  -0.57434  -0.49831  -0.48163
 Alpha  occ. eigenvalues --   -0.48163  -0.48163  -0.47509  -0.47509  -0.47509
 Alpha  occ. eigenvalues --   -0.47507  -0.47507  -0.46766  -0.46766  -0.46766
 Alpha  occ. eigenvalues --   -0.46308  -0.46308  -0.46308  -0.41423  -0.41423
 Alpha  occ. eigenvalues --   -0.41423  -0.25269  -0.25269  -0.25269
 Alpha virt. eigenvalues --   -0.06812  -0.06812  -0.06812  -0.04170  -0.04170
 Alpha virt. eigenvalues --   -0.04170  -0.00097  -0.00097  -0.00097   0.02158
 Alpha virt. eigenvalues --    0.02158   0.02158   0.02608   0.02608   0.02608

 Mulliken charges:
               1
     1  Mo  -0.241939
     2  C    0.268642
     3  C    0.268642
     4  C    0.268642
     5  C    0.268642
     6  C    0.268642
     7  C    0.268642
     8  O   -0.228319
     9  O   -0.228319
    10  O   -0.228319
    11  O   -0.228319
    12  O   -0.228319
    13  O   -0.228319
 Sum of Mulliken charges =   0.00000

 Dipole moment (field-independent basis, Debye):
    X=             -0.0000    Y=              0.0000    Z=              0.0000  Tot=              0.0000
 Quadrupole moment (field-independent basis, Debye-Ang):
   XX=            -89.2150   YY=            -89.2150   ZZ=            -89.2150
   XY=             -0.0000   XZ=              0.0000   YZ=             -0.0000

  Exact polarizability:     126.759      -0.000     126.759       0.000      -0.000     126.759
 Approx polarizability:     270.478       0.000     270.478       0.000      -0.000     270.478

                      1                      2                      3
                     T2U                    T2U                    T2U
 Frequencies --     60.9202                60.9202                60.9202
 Red. masses --     15.3529                15.3529                15.3529
 Frc consts  --      0.0336                 0.0336                 0.0336
 IR Inten    --      0.0000                 0.0000                 0.0000

                      4                      5                      6
                     T2G                    T2G                    T2G
 Frequencies --     83.6386                83.6386                83.6386
 Red. masses --     15.4556                15.4556                15.4556
 Frc consts  --      0.0637                 0.0637                 0.0637
 IR Inten    --      0.0000                 0.0000                 0.0000

                      7                      8                      9
                     T1U                    T1U                    T1U
 Frequencies --     89.7662                89.7662                89.7662
 Red. masses --     18.5014                18.5014                18.5014
 Frc consts  --      0.0878                 0.0878                 0.0878
 IR Inten    --      0.6480                 0.6480                 0.6480

                     10                     11                     12
                     T1G                    T1G                    T1G
 Frequencies --    336.5600               336.5601               336.5601
 Red. masses --     12.7562                12.7562                12.7562
 Frc consts  --      0.8513                 0.8513                 0.8513
 IR Inten    --      0.0000                 0.0000                 0.0000

                     13                     14                     15
                     T1U                    T1U                    T1U
 Frequencies --    367.6218               367.6218               367.6218
 Red. masses --     17.7343                17.7343                17.7343
 Frc consts  --      1.4121                 1.4121                 1.4121
 IR Inten    --     45.8404                45.8404                45.8404

                     16                     17                     18
                     EG                     EG                     A1G
 Frequencies --    384.9641               384.9641               403.1637
 Red. masses --     14.0760                14.0760                14.1332
 Frc consts  --      1.2291                 1.2291                 1.3535
 IR Inten    --      0.0000                 0.0000                 0.0000

                     19                     20                     21
                     T2G                    T2G                    T2G
 Frequencies --    482.7728               482.7728               482.7728
 Red. masses --     12.3226                12.3226                12.3226
 Frc consts  --      1.6921                 1.6921                 1.6921
 IR Inten    --      0.0000                 0.0000                 0.0000

                     22                     23                     24
                     T2U                    T2U                    T2U
 Frequencies --    522.4338               522.4338               522.4338
 Red. masses --     12.3887                12.3887                12.3887
 Frc consts  --      1.9922                 1.9922                 1.9922
 IR Inten    --      0.0000                 0.0000                 0.0000

                     25                     26                     27
                     T1U                    T1U                    T1U
 Frequencies --    613.6389               613.6389               613.6389
 Red. masses --     14.6698                14.6698                14.6698
 Frc consts  --      3.2546                 3.2546                 3.2546
 IR Inten    --    116.9311               116.9311               116.9311

                     28                     29                     30
                     T1U                    T1U                    T1U
 Frequencies --   2081.2831              2081.2831              2081.2831
 Red. masses --     13.4372                13.4372                13.4372
 Frc consts  --     34.2943                34.2943                34.2943
 IR Inten    --   1810.3735              1810.3735              1810.3735

                     31                     32                     33
                     EG                     EG                     A1G
 Frequencies --   2104.7174              2104.7174              2191.9329
 Red. masses --     13.3671                13.3671                13.3160
 Frc consts  --     34.8880                34.8880                37.6945
 IR Inten    --      0.0000                 0.0000                 0.0000

 - Thermochemistry -
 -------------------
 Temperature   298.150 Kelvin.  Pressure   1.00000 Atm.
 Atom     1 has atomic number 42 and mass  97.90550

 Molecular mass:   265.87499 amu.
 Principal axes and moments of inertia in atomic units:
                           1         2         3
     Eigenvalues --  3122.785563122.785563122.78556
           X            0.56440   0.82550   0.00000
           Y            0.82550  -0.56440   0.00000
           Z           -0.00000  -0.00000   1.00000
 This molecule is a spherical top.
 Rotational symmetry number 24.
 Warning -- assumption of classical behavior for rotation
           may cause significant error
 Rotational temperatures (Kelvin)      0.02774     0.02774     0.02774
 Rotational constants (GHZ):           0.57793     0.57793     0.57793
 Zero-point vibrational energy     128540.9 (Joules/Mol)
                                   30.72202 (Kcal/Mol)
 Warning -- explicit consideration of  27 degrees of freedom as
           vibrations may cause significant error
 Vibrational temperatures:     87.65    87.65    87.65   120.34   120.34
          (Kelvin)            120.34   129.15   129.15   129.15   484.23
                              484.23   484.23   528.93   528.93   528.93
                              553.88   553.88   580.06   694.60   694.60
                              694.60   751.67   751.67   751.67   882.89
                              882.89   882.89  2994.50  2994.50  2994.50
                             3028.22  3028.22  3153.70

 Zero-point correction=                           0.048959 (Hartree/Particle)
 Thermal correction to Energy=                    0.063697
 Thermal correction to Enthalpy=                  0.064641
 Thermal correction to Gibbs Free Energy=         0.008127
 Sum of electronic and zero-point Energies=           -747.578606
 Sum of electronic and thermal Energies=              -747.563868
 Sum of electronic and thermal Enthalpies=            -747.562924
 Sum of electronic and thermal Free Energies=         -747.619438

                     E (Thermal)             CV                S
                      KCal/Mol        Cal/Mol-Kelvin    Cal/Mol-Kelvin
 Total                   39.970             48.045            118.944
 Electronic               0.000              0.000              0.000
 Translational            0.889              2.981             42.633
 Rotational               0.889              2.981             25.472
 Vibrational             38.193             42.084             50.839
 Vibration     1          0.597              1.973              4.427
 Vibration     2          0.597              1.973              4.427
 Vibration     3          0.597              1.973              4.427
 Vibration     4          0.601              1.960              3.804
 Vibration     5          0.601              1.960              3.804
 Vibration     6          0.601              1.960              3.804
 Vibration     7          0.602              1.956              3.665
 Vibration     8          0.602              1.956              3.665
 Vibration     9          0.602              1.956              3.665
 Vibration    10          0.717              1.602              1.228
 Vibration    11          0.717              1.602              1.228
 Vibration    12          0.717              1.602              1.228
 Vibration    13          0.740              1.539              1.090
 Vibration    14          0.740              1.539              1.090
 Vibration    15          0.740              1.539              1.090
 Vibration    16          0.754              1.502              1.020
 Vibration    17          0.754              1.502              1.020
 Vibration    18          0.769              1.463              0.951
 Vibration    19          0.839              1.288              0.703
 Vibration    20          0.839              1.288              0.703
 Vibration    21          0.839              1.288              0.703
 Vibration    22          0.877              1.200              0.604
 Vibration    23          0.877              1.200              0.604
 Vibration    24          0.877              1.200              0.604
 Vibration    25          0.973              1.003              0.427
 Vibration    26          0.973              1.003              0.427
 Vibration    27          0.973              1.003              0.427

 Optimization completed.
    -- Stationary point found.
 Normal termination of Gaussian 16 at Fri Sep  3 20:11:11 2021.
