 Gaussian 16, Revision C.01,
 Gaussian 16:  ES64L-G16RevC.01  3-Jul-2019

 ---------------------------------------
 # opt freq b3lyp/gen nosymm pseudo=read
 ---------------------------------------

 -------------------
 Title Card Required
 -------------------
 Symbolic Z-matrix:
 Charge =  0 Multiplicity = 1

 SCF Done:  E(RB3LYP) =  -1205.17780708     A.U. after   17 cycles
 SCF Done:  E(RB3LYP) =  -1205.17780542     A.U. after   11 cycles
 SCF Done:  E(RB3LYP) =  -1205.17780747     A.U. after   10 cycles
 Optimization completed.
    -- Stationary point found.
 Normal termination of Gaussian 16 at Thu Mar 10 18:32:06 2022.

 ------------------------------------------------------------------
 #N Geom=AllCheck Guess=TCheck SCRF=Check GenChk RB3LYP/ChkBas Freq
 ------------------------------------------------------------------

 Structure from the checkpoint file:  "/home/chesagar/scratch/Gau-51040.chk"
 -------------------
 Title Card Required
 -------------------
 Charge =  0 Multiplicity = 1

                          Input orientation:
 ---------------------------------------------------------------------
 Center     Atomic      Atomic             Coordinates (Angstroms)
 Number     Number       Type             X           Y           Z
 ---------------------------------------------------------------------
      1         42           0        1.581674   -0.375786   -0.880747
      2          6           0        3.178415   -0.652608   -2.147160
      3          6           0        1.227001   -2.172298   -0.167485
      4          6           0        0.640274   -1.202084   -2.517117
      5          8           0        0.143892   -1.720143   -3.415460
      6          8           0        4.052234   -0.728927   -2.889253
      7          8           0        0.975824   -3.202484    0.289867
      8         16           0       -0.449344    0.826197   -0.646456
      9          1           0        0.157824    1.986371   -0.289353
     10         16           0        3.280016   -0.059895    0.773967
     11          1           0        2.778454   -0.685192    1.863328
 ---------------------------------------------------------------------

 SCF Done:  E(RB3LYP) =  -1205.17780747     A.U. after    1 cycles

 Alpha  occ. eigenvalues --  -88.87390 -88.87294 -19.26413 -19.25595 -19.24722
 Alpha  occ. eigenvalues --  -10.33761 -10.33392 -10.32766  -7.95150  -7.95012
 Alpha  occ. eigenvalues --   -5.91435  -5.91286  -5.91055  -5.90956  -5.90807
 Alpha  occ. eigenvalues --   -5.90657  -2.51871  -1.54934  -1.54297  -1.53795
 Alpha  occ. eigenvalues --   -1.16666  -1.15959  -1.14938  -0.72933  -0.72239
 Alpha  occ. eigenvalues --   -0.60167  -0.58783  -0.57938  -0.50007  -0.49245
 Alpha  occ. eigenvalues --   -0.48757  -0.48327  -0.47918  -0.47270  -0.46912
 Alpha  occ. eigenvalues --   -0.46229  -0.45444  -0.41613  -0.41228  -0.33027
 Alpha  occ. eigenvalues --   -0.31519  -0.29878  -0.27196  -0.25715  -0.25137
 Alpha virt. eigenvalues --   -0.13522  -0.10562  -0.05265  -0.03868  -0.03049
 Alpha virt. eigenvalues --   -0.02133  -0.01551  -0.00916   0.00612   0.00805
 Alpha virt. eigenvalues --    0.02325   0.03263   0.03671   0.06615   0.07861

 Mulliken charges:
               1
     1  Mo   0.078619
     2  C    0.199656
     3  C    0.246276
     4  C    0.217043
     5  O   -0.221733
     6  O   -0.209228
     7  O   -0.234196
     8  S   -0.129611
     9  H    0.082315
    10  S   -0.110821
    11  H    0.081680
 Sum of Mulliken charges =  -0.00000

 Dipole moment (field-independent basis, Debye):
    X=              0.4233    Y=              0.6334    Z=             -0.1323  Tot=              0.7732
 Quadrupole moment (field-independent basis, Debye-Ang):
   XX=            -88.6122   YY=            -81.5829   ZZ=            -81.4658
   XY=              0.4782   XZ=             -1.9711   YZ=             -1.0429

  Exact polarizability:     140.864      -5.558     106.989      10.701       5.072     127.799
 Approx polarizability:     295.230      -4.299     211.415      22.789       0.206     262.564

                      1                      2                      3
                      A                      A                      A
 Frequencies --     57.3262                69.9599                88.6110
 Red. masses --     16.9586                14.5151                13.5102
 Frc consts  --      0.0328                 0.0419                 0.0625
 IR Inten    --      3.0159                 0.2545                 0.0511

                      4                      5                      6
                      A                      A                      A
 Frequencies --     92.1897                99.2827               111.5908
 Red. masses --     16.0054                17.1752                13.7186
 Frc consts  --      0.0801                 0.0997                 0.1007
 IR Inten    --      0.3670                 0.1557                 0.8854

                      7                      8                      9
                      A                      A                      A
 Frequencies --    113.9449               290.4596               332.1972
 Red. masses --     13.8719                 1.4341                21.2407
 Frc consts  --      0.1061                 0.0713                 1.3811
 IR Inten    --      0.2808                38.6261                 5.1443

                     10                     11                     12
                      A                      A                      A
 Frequencies --    344.0160               361.4381               375.0720
 Red. masses --     15.2516                 1.3384                12.9702
 Frc consts  --      1.0635                 0.1030                 1.0750
 IR Inten    --     33.5074                30.8792                 8.2719

                     13                     14                     15
                      A                      A                      A
 Frequencies --    401.2885               416.0876               424.2208
 Red. masses --      6.9511                 8.0201                 8.1807
 Frc consts  --      0.6595                 0.8181                 0.8674
 IR Inten    --      0.7576                14.6800                 5.1925

                     16                     17                     18
                      A                      A                      A
 Frequencies --    451.1164               473.2180               509.0638
 Red. masses --      4.1565                 8.5577                12.3764
 Frc consts  --      0.4984                 1.1291                 1.8897
 IR Inten    --      5.3899                 9.8046                15.7268

                     19                     20                     21
                      A                      A                      A
 Frequencies --    552.3106               587.4608               661.8996
 Red. masses --      7.1073                 7.3710                 1.1230
 Frc consts  --      1.2774                 1.4988                 0.2899
 IR Inten    --      1.7063                28.7569                16.9553

                     22                     23                     24
                      A                      A                      A
 Frequencies --    694.4825              2056.8362              2084.1816
 Red. masses --      1.1211                13.3522                13.3958
 Frc consts  --      0.3186                33.2815                34.2839
 IR Inten    --     31.3014              1002.9779               537.3315

                     25                     26                     27
                      A                      A                      A
 Frequencies --   2136.9449              2614.8220              2646.0580
 Red. masses --     13.3512                 1.0382                 1.0387
 Frc consts  --     35.9218                 4.1825                 4.2849
 IR Inten    --    659.1643                 7.0660                 3.3010

 - Thermochemistry -
 -------------------
 Temperature   298.150 Kelvin.  Pressure   1.00000 Atm.
 Atom     1 has atomic number 42 and mass  97.90550

 Molecular mass:   247.85004 amu.
 Principal axes and moments of inertia in atomic units:
                           1         2         3
     Eigenvalues --  2053.649992337.532262740.02813
           X            0.90193  -0.41437   0.12170
           Y            0.05425   0.38827   0.91995
           Z            0.42846   0.82313  -0.37267
 This molecule is an asymmetric top.
 Rotational symmetry number  1.
 Warning -- assumption of classical behavior for rotation
           may cause significant error
 Rotational temperatures (Kelvin)      0.04218     0.03705     0.03161
 Rotational constants (GHZ):           0.87880     0.77207     0.65866
 Zero-point vibrational energy     113920.9 (Joules/Mol)
                                   27.22774 (Kcal/Mol)
 Warning -- explicit consideration of  20 degrees of freedom as
           vibrations may cause significant error
 Vibrational temperatures:     82.48   100.66   127.49   132.64   142.85
          (Kelvin)            160.55   163.94   417.91   477.96   494.96
                              520.03   539.64   577.36   598.66   610.36
                              649.06   680.86   732.43   794.65   845.23
                              952.33   999.21  2959.33  2998.67  3074.59
                             3762.15  3807.09

 Zero-point correction=                           0.043390 (Hartree/Particle)
 Thermal correction to Energy=                    0.055578
 Thermal correction to Enthalpy=                  0.056522
 Thermal correction to Gibbs Free Energy=         0.003326
 Sum of electronic and zero-point Energies=          -1205.134417
 Sum of electronic and thermal Energies=             -1205.122229
 Sum of electronic and thermal Enthalpies=           -1205.121285
 Sum of electronic and thermal Free Energies=        -1205.174481

                     E (Thermal)             CV                S
                      KCal/Mol        Cal/Mol-Kelvin    Cal/Mol-Kelvin
 Total                   34.876             39.791            111.961
 Electronic               0.000              0.000              0.000
 Translational            0.889              2.981             42.424
 Rotational               0.889              2.981             30.954
 Vibrational             33.098             33.829             38.583
 Vibration     1          0.596              1.975              4.547
 Vibration     2          0.598              1.968              4.154
 Vibration     3          0.601              1.957              3.690
 Vibration     4          0.602              1.955              3.613
 Vibration     5          0.604              1.950              3.468
 Vibration     6          0.607              1.940              3.241
 Vibration     7          0.607              1.938              3.201
 Vibration     8          0.686              1.691              1.471
 Vibration     9          0.714              1.611              1.249
 Vibration    10          0.723              1.587              1.193
 Vibration    11          0.736              1.552              1.116
 Vibration    12          0.746              1.523              1.059
 Vibration    13          0.767              1.467              0.958
 Vibration    14          0.779              1.435              0.905
 Vibration    15          0.786              1.418              0.878
 Vibration    16          0.810              1.358              0.792
 Vibration    17          0.830              1.309              0.729
 Vibration    18          0.864              1.230              0.636
 Vibration    19          0.908              1.135              0.539
 Vibration    20          0.945              1.059              0.472

                           ! Non-Optimized Parameters !
 Normal termination of Gaussian 16 at Thu Mar 10 18:32:21 2022.
