 Gaussian 16, Revision C.01,
 Gaussian 16:  ES64L-G16RevC.01  3-Jul-2019

 ---------------------------------------
 # opt freq b3lyp/gen nosymm pseudo=read
 ---------------------------------------

 -------------------
 Title Card Required
 -------------------
 Symbolic Z-matrix:
 Charge =  0 Multiplicity = 1

 SCF Done:  E(RB3LYP) =  -1091.82878222     A.U. after   19 cycles
 SCF Done:  E(RB3LYP) =  -1091.82880798     A.U. after   14 cycles
 SCF Done:  E(RB3LYP) =  -1091.82885469     A.U. after   14 cycles
 SCF Done:  E(RB3LYP) =  -1091.82890896     A.U. after   14 cycles
 SCF Done:  E(RB3LYP) =  -1091.82893393     A.U. after   14 cycles
 SCF Done:  E(RB3LYP) =  -1091.82894754     A.U. after   13 cycles
 SCF Done:  E(RB3LYP) =  -1091.82895356     A.U. after   13 cycles
 SCF Done:  E(RB3LYP) =  -1091.82895512     A.U. after   11 cycles
 SCF Done:  E(RB3LYP) =  -1091.82895714     A.U. after   12 cycles
 SCF Done:  E(RB3LYP) =  -1091.82896022     A.U. after   13 cycles
 SCF Done:  E(RB3LYP) =  -1091.82896673     A.U. after   14 cycles
 SCF Done:  E(RB3LYP) =  -1091.82897158     A.U. after   14 cycles
 SCF Done:  E(RB3LYP) =  -1091.82897562     A.U. after   12 cycles
 SCF Done:  E(RB3LYP) =  -1091.82897782     A.U. after   14 cycles
 SCF Done:  E(RB3LYP) =  -1091.82897861     A.U. after   12 cycles
 SCF Done:  E(RB3LYP) =  -1091.82897904     A.U. after   11 cycles
 SCF Done:  E(RB3LYP) =  -1091.82897912     A.U. after   11 cycles
 Optimization completed.
    -- Stationary point found.
 Normal termination of Gaussian 16 at Fri Mar 11 08:57:22 2022.

 ------------------------------------------------------------------
 #N Geom=AllCheck Guess=TCheck SCRF=Check GenChk RB3LYP/ChkBas Freq
 ------------------------------------------------------------------

 Structure from the checkpoint file:  "/home/chesagar/scratch/Gau-40678.chk"
 -------------------
 Title Card Required
 -------------------
 Charge =  0 Multiplicity = 1

                          Input orientation:
 ---------------------------------------------------------------------
 Center     Atomic      Atomic             Coordinates (Angstroms)
 Number     Number       Type             X           Y           Z
 ---------------------------------------------------------------------
      1         42           0        1.996483   -0.307411   -0.266441
      2          6           0        3.071706   -0.600375   -1.967996
      3          6           0        1.489719   -2.139427    0.099515
      4          8           0        3.676056   -0.666014   -2.945426
      5          8           0        1.153923   -3.213929    0.384950
      6         16           0       -0.080219    0.685075   -0.459798
      7          1           0        0.250844    1.963380   -0.784565
      8         16           0        3.420352    0.148020    1.495757
      9          1           0        2.992966   -0.637393    2.513534
 ---------------------------------------------------------------------

 SCF Done:  E(RB3LYP) =  -1091.82897912     A.U. after    1 cycles

 Alpha  occ. eigenvalues --  -88.87599 -88.87425 -19.26800 -19.22712 -10.33527
 Alpha  occ. eigenvalues --  -10.30392  -7.95467  -7.95288  -5.91720  -5.91558
 Alpha  occ. eigenvalues --   -5.91344  -5.91170  -5.91149  -5.90983  -2.50317
 Alpha  occ. eigenvalues --   -1.53796  -1.52956  -1.51854  -1.16759  -1.12669
 Alpha  occ. eigenvalues --   -0.73142  -0.72531  -0.59534  -0.56511  -0.48584
 Alpha  occ. eigenvalues --   -0.48528  -0.47914  -0.45355  -0.45330  -0.45076
 Alpha  occ. eigenvalues --   -0.42974  -0.42058  -0.33254  -0.32783  -0.30484
 Alpha  occ. eigenvalues --   -0.27842  -0.24711  -0.23258
 Alpha virt. eigenvalues --   -0.14612  -0.09718  -0.08316  -0.02924  -0.01226
 Alpha virt. eigenvalues --   -0.00767  -0.00033   0.01537   0.02339   0.03275
 Alpha virt. eigenvalues --    0.03585   0.06275   0.08109   0.18047   0.21408

 Mulliken charges:
               1
     1  Mo   0.251192
     2  C    0.166050
     3  C    0.223786
     4  O   -0.199920
     5  O   -0.248906
     6  S   -0.177024
     7  H    0.070205
     8  S   -0.176115
     9  H    0.090731
 Sum of Mulliken charges =   0.00000

 Dipole moment (field-independent basis, Debye):
    X=              0.7061    Y=              1.1244    Z=             -0.5344  Tot=              1.4313
 Quadrupole moment (field-independent basis, Debye-Ang):
   XX=            -73.7478   YY=            -72.4431   ZZ=            -69.4541
   XY=             -0.1517   XZ=             -1.0500   YZ=             -2.4748

  Exact polarizability:     121.389      -2.418     103.260       3.856      -5.075     115.884
 Approx polarizability:     254.528      11.922     212.890      -3.929     -24.627     240.090

                      1                      2                      3
                      A                      A                      A
 Frequencies --     32.6109                59.8663                82.1221
 Red. masses --      9.2333                15.1191                 9.6767
 Frc consts  --      0.0058                 0.0319                 0.0385
 IR Inten    --     13.4755                 0.1614                 1.1914

                      4                      5                      6
                      A                      A                      A
 Frequencies --     90.1153                93.9329               301.5630
 Red. masses --     12.8572                16.5455                 1.7666
 Frc consts  --      0.0615                 0.0860                 0.0947
 IR Inten    --      0.1940                 0.8982                47.1938

                      7                      8                      9
                      A                      A                      A
 Frequencies --    318.8644               353.6707               372.5385
 Red. masses --      2.5859                20.7078                 4.6193
 Frc consts  --      0.1549                 1.5261                 0.3777
 IR Inten    --     56.2711                 8.3206                 1.5550

                     10                     11                     12
                      A                      A                      A
 Frequencies --    387.6686               419.0825               440.9458
 Red. masses --      2.4325                 8.5100                 3.1669
 Frc consts  --      0.2154                 0.8806                 0.3628
 IR Inten    --     13.6306                 7.0601                 6.9790

                     13                     14                     15
                      A                      A                      A
 Frequencies --    467.5110               486.7850               594.4612
 Red. masses --      7.2775                 5.7535                10.6591
 Frc consts  --      0.9372                 0.8033                 2.2193
 IR Inten    --     11.1746                12.6395                 8.8357

                     16                     17                     18
                      A                      A                      A
 Frequencies --    659.5130               667.0168              2010.6964
 Red. masses --      1.1347                 1.1542                13.3054
 Frc consts  --      0.2908                 0.3026                31.6935
 IR Inten    --      3.1448                 1.4677              1248.5707

                     19                     20                     21
                      A                      A                      A
 Frequencies --   2099.3945              2584.2396              2621.4495
 Red. masses --     13.3310                 1.0380                 1.0387
 Frc consts  --     34.6180                 4.0842                 4.2054
 IR Inten    --    652.9330                12.0266                 3.5029

 - Thermochemistry -
 -------------------
 Temperature   298.150 Kelvin.  Pressure   1.00000 Atm.
 Atom     1 has atomic number 42 and mass  97.90550

 Molecular mass:   219.85512 amu.
 Principal axes and moments of inertia in atomic units:
                           1         2         3
     Eigenvalues --  1708.579981791.049781960.97924
           X            0.90689   0.37345   0.19515
           Y           -0.17556  -0.08613   0.98069
           Z           -0.38304   0.92364   0.01255
 This molecule is an asymmetric top.
 Rotational symmetry number  1.
 Warning -- assumption of classical behavior for rotation
           may cause significant error
 Rotational temperatures (Kelvin)      0.05069     0.04836     0.04417
 Rotational constants (GHZ):           1.05628     1.00764     0.92033
 Zero-point vibrational energy      90581.5 (Joules/Mol)
                                   21.64950 (Kcal/Mol)
 Warning -- explicit consideration of  15 degrees of freedom as
           vibrations may cause significant error
 Vibrational temperatures:     46.92    86.13   118.16   129.66   135.15
          (Kelvin)            433.88   458.77   508.85   536.00   557.77
                              602.97   634.42   672.64   700.38   855.30
                              948.89   959.69  2892.94  3020.56  3718.14
                             3771.68

 Zero-point correction=                           0.034501 (Hartree/Particle)
 Thermal correction to Energy=                    0.044587
 Thermal correction to Enthalpy=                  0.045531
 Thermal correction to Gibbs Free Energy=        -0.003747
 Sum of electronic and zero-point Energies=          -1091.794478
 Sum of electronic and thermal Energies=             -1091.784392
 Sum of electronic and thermal Enthalpies=           -1091.783448
 Sum of electronic and thermal Free Energies=        -1091.832726

                     E (Thermal)             CV                S
                      KCal/Mol        Cal/Mol-Kelvin    Cal/Mol-Kelvin
 Total                   27.979             31.969            103.714
 Electronic               0.000              0.000              0.000
 Translational            0.889              2.981             42.066
 Rotational               0.889              2.981             30.174
 Vibrational             26.201             26.007             31.474
 Vibration     1          0.594              1.983              5.664
 Vibration     2          0.597              1.973              4.462
 Vibration     3          0.600              1.961              3.840
 Vibration     4          0.602              1.956              3.658
 Vibration     5          0.603              1.954              3.576
 Vibration     6          0.694              1.671              1.408
 Vibration     7          0.705              1.638              1.316
 Vibration     8          0.730              1.568              1.150
 Vibration     9          0.744              1.529              1.069
 Vibration    10          0.756              1.497              1.009
 Vibration    11          0.782              1.429              0.895
 Vibration    12          0.801              1.381              0.824
 Vibration    13          0.825              1.322              0.745
 Vibration    14          0.843              1.279              0.692
 Vibration    15          0.952              1.044              0.459

                           ! Non-Optimized Parameters !
 Normal termination of Gaussian 16 at Fri Mar 11 08:57:35 2022.
