 Gaussian 16, Revision C.01,
 Gaussian 16:  ES64L-G16RevC.01  3-Jul-2019

 ---------------------------------------
 # opt freq b3lyp/gen nosymm pseudo=read
 ---------------------------------------

 -------------------
 Title Card Required
 -------------------
 Symbolic Z-matrix:
 Charge =  0 Multiplicity = 1

 SCF Done:  E(RB3LYP) =  -1491.15285784     A.U. after   21 cycles
 SCF Done:  E(RB3LYP) =  -1491.19395449     A.U. after   16 cycles
 SCF Done:  E(RB3LYP) =  -1491.20156646     A.U. after   18 cycles
 SCF Done:  E(RB3LYP) =  -1491.21714473     A.U. after   17 cycles
 SCF Done:  E(RB3LYP) =  -1491.23014934     A.U. after   18 cycles
 SCF Done:  E(RB3LYP) =  -1491.23352472     A.U. after   16 cycles
 SCF Done:  E(RB3LYP) =  -1491.23423533     A.U. after   15 cycles
 SCF Done:  E(RB3LYP) =  -1491.23515099     A.U. after   17 cycles
 SCF Done:  E(RB3LYP) =  -1491.23641633     A.U. after   17 cycles
 SCF Done:  E(RB3LYP) =  -1491.23817665     A.U. after   16 cycles
 SCF Done:  E(RB3LYP) =  -1491.24235445     A.U. after   14 cycles
 SCF Done:  E(RB3LYP) =  -1491.24260597     A.U. after   14 cycles
 SCF Done:  E(RB3LYP) =  -1491.24268194     A.U. after   14 cycles
 SCF Done:  E(RB3LYP) =  -1491.24269090     A.U. after   13 cycles
 SCF Done:  E(RB3LYP) =  -1491.24269757     A.U. after   11 cycles
 SCF Done:  E(RB3LYP) =  -1491.24270158     A.U. after   11 cycles
 SCF Done:  E(RB3LYP) =  -1491.24270355     A.U. after   11 cycles
 SCF Done:  E(RB3LYP) =  -1491.24270429     A.U. after   11 cycles
 SCF Done:  E(RB3LYP) =  -1491.24270446     A.U. after   11 cycles
 Optimization completed.
    -- Stationary point found.
 Normal termination of Gaussian 16 at Fri Mar 11 09:25:18 2022.

 ------------------------------------------------------------------
 #N Geom=AllCheck Guess=TCheck SCRF=Check GenChk RB3LYP/ChkBas Freq
 ------------------------------------------------------------------

 Structure from the checkpoint file:  "/home/chesagar/scratch/Gau-88016.chk"
 -------------------
 Title Card Required
 -------------------
 Charge =  0 Multiplicity = 1

                          Input orientation:
 ---------------------------------------------------------------------
 Center     Atomic      Atomic             Coordinates (Angstroms)
 Number     Number       Type             X           Y           Z
 ---------------------------------------------------------------------
      1         42           0        1.952444    0.102926   -0.309246
      2          6           0        2.669281   -0.661089   -2.023513
      3          6           0        1.619494   -1.801931    0.014605
      4          8           0        3.076525   -1.194197   -2.963860
      5          8           0        1.449122   -2.929858    0.221444
      6         16           0       -0.338975    0.372299   -0.669240
      7          1           0       -0.487765    1.691214   -0.376609
      8         16           0        3.264227    0.177894    1.641394
      9          1           0        3.415869   -1.064293    2.151867
     10         16           0        2.414379    2.755309   -0.495990
     11          1           0        3.574139    2.848639   -1.177000
     12          1           0        2.996203    3.043566    0.688766
 ---------------------------------------------------------------------

 SCF Done:  E(RB3LYP) =  -1491.24270446     A.U. after    1 cycles

 Alpha  occ. eigenvalues --  -88.93175 -88.86551 -88.86050 -19.24319 -19.21235
 Alpha  occ. eigenvalues --  -10.31741 -10.29236  -8.00886  -7.94264  -7.93825
 Alpha  occ. eigenvalues --   -5.97218  -5.96931  -5.96379  -5.90540  -5.90148
 Alpha  occ. eigenvalues --   -5.90103  -5.89961  -5.89696  -5.89537  -2.49277
 Alpha  occ. eigenvalues --   -1.52420  -1.52000  -1.50864  -1.14372  -1.11460
 Alpha  occ. eigenvalues --   -0.80472  -0.71772  -0.71046  -0.57898  -0.55241
 Alpha  occ. eigenvalues --   -0.50161  -0.47432  -0.46481  -0.46258  -0.44894
 Alpha  occ. eigenvalues --   -0.44428  -0.43291  -0.42508  -0.41632  -0.39846
 Alpha  occ. eigenvalues --   -0.33387  -0.32096  -0.30748  -0.28129  -0.26674
 Alpha  occ. eigenvalues --   -0.23825  -0.22178
 Alpha virt. eigenvalues --   -0.12902  -0.07359  -0.03573  -0.02241  -0.01430
 Alpha virt. eigenvalues --   -0.00679   0.00118   0.00624   0.01898   0.02463
 Alpha virt. eigenvalues --    0.03382   0.04604   0.06941   0.08385   0.09268

 Mulliken charges:
               1
     1  Mo   0.026595
     2  C    0.180198
     3  C    0.224818
     4  O   -0.228647
     5  O   -0.262974
     6  S   -0.106919
     7  H    0.053835
     8  S   -0.207794
     9  H    0.085259
    10  S   -0.027934
    11  H    0.129601
    12  H    0.133962
 Sum of Mulliken charges =  -0.00000

 Dipole moment (field-independent basis, Debye):
    X=              2.1672    Y=              4.0608    Z=             -0.2098  Tot=              4.6077
 Quadrupole moment (field-independent basis, Debye-Ang):
   XX=            -79.1575   YY=            -79.7930   ZZ=            -87.9704
   XY=              9.8618   XZ=             -2.6468   YZ=             -3.0762

  Exact polarizability:     129.791      -2.603     131.973      13.101       2.542     127.346
 Approx polarizability:     257.153      -9.073     240.410      22.419       9.238     259.753

                      1                      2                      3
                      A                      A                      A
 Frequencies --     48.1273                58.9069                79.7139
 Red. masses --     10.6134                16.1655                 9.4920
 Frc consts  --      0.0145                 0.0331                 0.0355
 IR Inten    --      0.8586                 1.3212                 1.1859

                      4                      5                      6
                      A                      A                      A
 Frequencies --     91.9833                96.9469                97.8126
 Red. masses --      7.1429                 1.2008                10.2594
 Frc consts  --      0.0356                 0.0066                 0.0578
 IR Inten    --      4.5313                13.8723                 0.5606

                      7                      8                      9
                      A                      A                      A
 Frequencies --    115.0387               134.2836               177.1497
 Red. masses --     10.7708                 9.3764                19.1843
 Frc consts  --      0.0840                 0.0996                 0.3547
 IR Inten    --      0.3900                 0.6789                 0.6768

                     10                     11                     12
                      A                      A                      A
 Frequencies --    321.4722               335.4121               367.6482
 Red. masses --      3.7835                13.3329                 2.0816
 Frc consts  --      0.2304                 0.8838                 0.1658
 IR Inten    --     44.8087                16.2912                55.0803

                     13                     14                     15
                      A                      A                      A
 Frequencies --    389.7878               428.2691               445.8562
 Red. masses --      2.3913                 4.2587                 1.5066
 Frc consts  --      0.2141                 0.4602                 0.1765
 IR Inten    --      4.4743                13.6576                 7.7867

                     16                     17                     18
                      A                      A                      A
 Frequencies --    458.0749               478.9427               484.3742
 Red. masses --      2.5523                 1.6497                 8.2025
 Frc consts  --      0.3155                 0.2230                 1.1339
 IR Inten    --      5.9359                 3.6160                 8.6561

                     19                     20                     21
                      A                      A                      A
 Frequencies --    514.3482               554.8086               616.6353
 Red. masses --      1.3306                 6.7973                 6.7595
 Frc consts  --      0.2074                 1.2327                 1.5143
 IR Inten    --      5.8380                 5.9002                10.7733

                     22                     23                     24
                      A                      A                      A
 Frequencies --    698.1900               749.2380              1220.9139
 Red. masses --      1.0655                 1.0942                 1.0383
 Frc consts  --      0.3060                 0.3619                 0.9119
 IR Inten    --     12.1119                 7.3180                10.5585

                     25                     26                     27
                      A                      A                      A
 Frequencies --   2022.2919              2086.6086              2582.6574
 Red. masses --     13.3100                13.3022                 1.0385
 Frc consts  --     32.0714                34.1238                 4.0813
 IR Inten    --    740.1516               848.1131                25.9481

                     28                     29                     30
                      A                      A                      A
 Frequencies --   2645.8087              2665.1003              2695.9393
 Red. masses --      1.0388                 1.0364                 1.0390
 Frc consts  --      4.2844                 4.3371                 4.4494
 IR Inten    --      8.5605                 5.2355                 1.8941

 - Thermochemistry -
 -------------------
 Temperature   298.150 Kelvin.  Pressure   1.00000 Atm.
 Atom     1 has atomic number 42 and mass  97.90550

 Molecular mass:   253.84284 amu.
 Principal axes and moments of inertia in atomic units:
                           1         2         3
     Eigenvalues --  1980.694232566.327602838.61602
           X            0.15435   0.61087   0.77654
           Y            0.97801  -0.20605  -0.03231
           Z            0.14027   0.76445  -0.62924
 This molecule is an asymmetric top.
 Rotational symmetry number  1.
 Warning -- assumption of classical behavior for rotation
           may cause significant error
 Rotational temperatures (Kelvin)      0.04373     0.03375     0.03051
 Rotational constants (GHZ):           0.91117     0.70324     0.63578
 Zero-point vibrational energy     141532.2 (Joules/Mol)
                                   33.82701 (Kcal/Mol)
 Warning -- explicit consideration of  21 degrees of freedom as
           vibrations may cause significant error
 Vibrational temperatures:     69.24    84.75   114.69   132.34   139.48
          (Kelvin)            140.73   165.52   193.20   254.88   462.53
                              482.58   528.96   560.82   616.18   641.49
                              659.07   689.09   696.91   740.03   798.25
                              887.20  1004.54  1077.99  1756.62  2909.63
                             3002.16  3715.87  3806.73  3834.48  3878.86

 Zero-point correction=                           0.053907 (Hartree/Particle)
 Thermal correction to Energy=                    0.066865
 Thermal correction to Enthalpy=                  0.067809
 Thermal correction to Gibbs Free Energy=         0.012436
 Sum of electronic and zero-point Energies=          -1491.188798
 Sum of electronic and thermal Energies=             -1491.175839
 Sum of electronic and thermal Enthalpies=           -1491.174895
 Sum of electronic and thermal Free Energies=        -1491.230268

                     E (Thermal)             CV                S
                      KCal/Mol        Cal/Mol-Kelvin    Cal/Mol-Kelvin
 Total                   41.958             41.561            116.542
 Electronic               0.000              0.000              0.000
 Translational            0.889              2.981             42.495
 Rotational               0.889              2.981             31.046
 Vibrational             40.181             35.599             43.002
 Vibration     1          0.595              1.978              4.893
 Vibration     2          0.596              1.974              4.493
 Vibration     3          0.600              1.963              3.898
 Vibration     4          0.602              1.955              3.617
 Vibration     5          0.603              1.951              3.515
 Vibration     6          0.603              1.951              3.497
 Vibration     7          0.608              1.937              3.182
 Vibration     8          0.613              1.919              2.884
 Vibration     9          0.628              1.870              2.358
 Vibration    10          0.707              1.632              1.303
 Vibration    11          0.717              1.605              1.234
 Vibration    12          0.740              1.539              1.090
 Vibration    13          0.758              1.492              1.001
 Vibration    14          0.790              1.409              0.864
 Vibration    15          0.805              1.370              0.808
 Vibration    16          0.816              1.343              0.772
 Vibration    17          0.835              1.297              0.713
 Vibration    18          0.840              1.285              0.698
 Vibration    19          0.869              1.218              0.623
 Vibration    20          0.910              1.129              0.534
 Vibration    21          0.976              0.997              0.422

                           ! Non-Optimized Parameters !
 Normal termination of Gaussian 16 at Fri Mar 11 09:25:33 2022.
