 Gaussian 16, Revision C.01,
 Gaussian 16:  ES64L-G16RevC.01  3-Jul-2019

 -----------------------------------------------------------
 # opt=(calcfc,ts,noeigen) freq b3lyp/gen nosymm pseudo=read
 -----------------------------------------------------------

 -------------------
 Title Card Required
 -------------------
 Symbolic Z-matrix:
 Charge =  0 Multiplicity = 1

 SCF Done:  E(RB3LYP) =  -1890.63580781     A.U. after   19 cycles
 SCF Done:  E(RB3LYP) =  -1890.63573533     A.U. after   14 cycles
 SCF Done:  E(RB3LYP) =  -1890.63574103     A.U. after   12 cycles
 SCF Done:  E(RB3LYP) =  -1890.63574130     A.U. after   12 cycles
 SCF Done:  E(RB3LYP) =  -1890.63574132     A.U. after    9 cycles
 SCF Done:  E(RB3LYP) =  -1890.63574132     A.U. after    9 cycles
 Optimization completed.
    -- Stationary point found.

 1\1\GINC-NODE16-IB\FTS\RB3LYP\Gen\C2H6Mo1O2S4\CHESAGAR\18-Mar-2022\0\\
 # opt=(calcfc,ts,noeigen) freq b3lyp/gen nosymm pseudo=read\\Title Car
 d Required\\0,1\Mo,1.8933327553,0.2004453337,-0.3394377799\C,2.4544060
 47,-0.309388462,-2.2205386489\C,1.7988413911,-1.7488080965,-0.16313778
 69\O,2.7698893744,-0.7044010564,-3.2581203067\O,1.7620122276,-2.902313
 0777,-0.0425677395\S,-0.4052223938,0.2417437129,-0.6060798059\H,-0.698
 6184624,1.5060274511,-0.1991309585\S,2.9930712603,0.2981103171,1.77617
 85685\H,3.0366046846,-0.9480433337,2.2943879407\S,2.1268370362,2.87648

 Normal termination of Gaussian 16 at Fri Mar 18 15:13:14 2022.

 ------------------------------------------------------------------
 #N Geom=AllCheck Guess=TCheck SCRF=Check GenChk RB3LYP/ChkBas Freq
 ------------------------------------------------------------------

 Structure from the checkpoint file:  "/home/chesagar/scratch/Gau-173833.chk"
 -------------------
 Title Card Required
 -------------------
 Charge =  0 Multiplicity = 1

                          Input orientation:
 ---------------------------------------------------------------------
 Center     Atomic      Atomic             Coordinates (Angstroms)
 Number     Number       Type             X           Y           Z
 ---------------------------------------------------------------------
      1         42           0        1.893333    0.200445   -0.339438
      2          6           0        2.454406   -0.309388   -2.220539
      3          6           0        1.798841   -1.748808   -0.163138
      4          8           0        2.769889   -0.704401   -3.258120
      5          8           0        1.762012   -2.902313   -0.042568
      6         16           0       -0.405222    0.241744   -0.606080
      7          1           0       -0.698618    1.506027   -0.199131
      8         16           0        2.993071    0.298110    1.776179
      9          1           0        3.036605   -0.948043    2.294388
     10         16           0        2.126837    2.876487   -0.390598
     11          1           0        3.313600    3.020169   -1.016198
     12          1           0        2.637139    3.166264    0.826460
     13         16           0        5.649470    0.942948   -1.039659
     14          1           0        5.752684   -0.272604   -1.610540
     15          1           0        5.221788    0.444131    0.141232
 ---------------------------------------------------------------------

 SCF Done:  E(RB3LYP) =  -1890.63574132     A.U. after    1 cycles

 Alpha  occ. eigenvalues --  -88.92581 -88.88554 -88.86986 -88.85530 -19.24391
 Alpha  occ. eigenvalues --  -19.21100 -10.31756 -10.29050  -8.00292  -7.96366
 Alpha  occ. eigenvalues --   -7.94691  -7.93266  -5.96618  -5.96333  -5.95794
 Alpha  occ. eigenvalues --   -5.92733  -5.92412  -5.91805  -5.90959  -5.90561
 Alpha  occ. eigenvalues --   -5.90411  -5.89560  -5.89140  -5.88971  -2.49193
 Alpha  occ. eigenvalues --   -1.52265  -1.51997  -1.50690  -1.14505  -1.11297
 Alpha  occ. eigenvalues --   -0.79912  -0.76212  -0.71926  -0.70807  -0.57896
 Alpha  occ. eigenvalues --   -0.55166  -0.49632  -0.47386  -0.46868  -0.46338
 Alpha  occ. eigenvalues --   -0.46223  -0.44660  -0.44284  -0.43149  -0.42292
 Alpha  occ. eigenvalues --   -0.41009  -0.40006  -0.38350  -0.32983  -0.32007
 Alpha  occ. eigenvalues --   -0.30698  -0.28583  -0.28312  -0.26071  -0.23529
 Alpha  occ. eigenvalues --   -0.22117
 Alpha virt. eigenvalues --   -0.12646  -0.07372  -0.02980  -0.02284  -0.01245
 Alpha virt. eigenvalues --   -0.00750  -0.00431   0.00429   0.01328   0.01506
 Alpha virt. eigenvalues --    0.02022   0.03548   0.04492   0.06029   0.07847

 Mulliken charges:
               1
     1  Mo  -0.033611
     2  C    0.186132
     3  C    0.225562
     4  O   -0.231517
     5  O   -0.267390
     6  S   -0.075395
     7  H    0.056089
     8  S   -0.232898
     9  H    0.085983
    10  S   -0.023710
    11  H    0.137749
    12  H    0.130687
    13  S   -0.169763
    14  H    0.099734
    15  H    0.112347
 Sum of Mulliken charges =   0.00000

 Dipole moment (field-independent basis, Debye):
    X=              1.8109    Y=              3.0073    Z=             -0.0958  Tot=              3.5118
 Quadrupole moment (field-independent basis, Debye-Ang):
   XX=            -95.4430   YY=            -95.3060   ZZ=           -102.8812
   XY=              2.6718   XZ=             -2.7088   YZ=             -0.9555

  Exact polarizability:     163.544       0.940     143.520       2.876       4.250     144.606
 Approx polarizability:     287.648      -2.661     264.119       8.232      11.295     293.533

 ******    1 imaginary frequencies (negative Signs) ******

                      1                      2                      3
                      A                      A                      A
 Frequencies --    -48.0676                45.9085                52.0456
 Red. masses --      9.1659                15.6272                10.7524
 Frc consts  --      0.0125                 0.0194                 0.0172
 IR Inten    --      6.0476                 4.0349                 0.5367

                      4                      5                      6
                      A                      A                      A
 Frequencies --     69.4737                75.1323                86.9616
 Red. masses --      7.5927                10.6469                12.2887
 Frc consts  --      0.0216                 0.0354                 0.0548
 IR Inten    --      0.6990                 1.8484                 1.9886

                      7                      8                      9
                      A                      A                      A
 Frequencies --     95.8630               100.2341               114.7817
 Red. masses --      7.9404                11.9288                 2.4579
 Frc consts  --      0.0430                 0.0706                 0.0191
 IR Inten    --      7.0588                 0.9776                 3.3152

                     10                     11                     12
                      A                      A                      A
 Frequencies --    118.1697               131.2974               142.5025
 Red. masses --      2.3663                 1.7727                 1.7096
 Frc consts  --      0.0195                 0.0180                 0.0205
 IR Inten    --      2.0664                21.9548                15.5076

                     13                     14                     15
                      A                      A                      A
 Frequencies --    175.2756               182.2923               264.5926
 Red. masses --      1.1064                13.8360                 1.0609
 Frc consts  --      0.0200                 0.2709                 0.0438
 IR Inten    --     27.8552                 0.5301                56.2301

                     16                     17                     18
                      A                      A                      A
 Frequencies --    318.0269               338.2520               376.2965
 Red. masses --      9.6250                 2.8874                 3.8587
 Frc consts  --      0.5736                 0.1946                 0.3219
 IR Inten    --     29.2358                56.7261                38.7899

                     19                     20                     21
                      A                      A                      A
 Frequencies --    395.0819               413.4719               442.0069
 Red. masses --      1.7977                 4.5225                 1.4132
 Frc consts  --      0.1653                 0.4555                 0.1627
 IR Inten    --      8.7781                12.5694                14.8225

                     22                     23                     24
                      A                      A                      A
 Frequencies --    453.9872               475.0813               483.1516
 Red. masses --      2.2737                 1.9538                 7.3485
 Frc consts  --      0.2761                 0.2598                 1.0107
 IR Inten    --      7.5191                 1.9625                11.6580

                     25                     26                     27
                      A                      A                      A
 Frequencies --    518.6954               551.0859               615.6835
 Red. masses --      1.3205                 7.0728                 5.6331
 Frc consts  --      0.2093                 1.2656                 1.2581
 IR Inten    --      2.6534                 4.4875                11.9803

                     28                     29                     30
                      A                      A                      A
 Frequencies --    696.4024               761.0422              1222.8899
 Red. masses --      1.0697                 1.0969                 1.0384
 Frc consts  --      0.3056                 0.3743                 0.9150
 IR Inten    --     11.9408                 6.6490                 1.2175

                     31                     32                     33
                      A                      A                      A
 Frequencies --   1225.6834              2020.3238              2086.5165
 Red. masses --      1.0382                13.3137                13.3043
 Frc consts  --      0.9189                32.0177                34.1261
 IR Inten    --     13.9634               723.8640               798.5899

                     34                     35                     36
                      A                      A                      A
 Frequencies --   2572.2897              2644.1508              2657.7439
 Red. masses --      1.0386                 1.0374                 1.0387
 Frc consts  --      4.0489                 4.2734                 4.3229
 IR Inten    --     26.1946                34.1131                 7.2584

                     37                     38                     39
                      A                      A                      A
 Frequencies --   2661.7223              2684.7503              2709.7824
 Red. masses --      1.0361                 1.0393                 1.0385
 Frc consts  --      4.3248                 4.4137                 4.4931
 IR Inten    --      6.6987                 5.3464                 2.9568

 - Thermochemistry -
 -------------------
 Temperature   298.150 Kelvin.  Pressure   1.00000 Atm.
 Atom     1 has atomic number 42 and mass  97.90550

 Molecular mass:   287.83057 amu.
 Principal axes and moments of inertia in atomic units:
                           1         2         3
     Eigenvalues --  2825.499313732.810584146.46581
           X            0.92634  -0.33357   0.17502
           Y            0.37011   0.89244  -0.25800
           Z           -0.07014   0.30377   0.95016
 This molecule is an asymmetric top.
 Rotational symmetry number  1.
 Warning -- assumption of classical behavior for rotation
           may cause significant error
 Rotational temperatures (Kelvin)      0.03065     0.02320     0.02089
 Rotational constants (GHZ):           0.63873     0.48348     0.43525
    1 imaginary frequencies ignored.
 Zero-point vibrational energy     185293.5 (Joules/Mol)
                                   44.28620 (Kcal/Mol)
 Warning -- explicit consideration of  26 degrees of freedom as
           vibrations may cause significant error
 Vibrational temperatures:     66.05    74.88    99.96   108.10   125.12
          (Kelvin)            137.93   144.21   165.15   170.02   188.91
                              205.03   252.18   262.28   380.69   457.57
                              486.67   541.41   568.43   594.89   635.95
                              653.19   683.54   695.15   746.29   792.89
                              885.83  1001.97  1094.97  1759.47  1763.49
                             2906.80  3002.03  3700.95  3804.34  3823.90
                             3829.62  3862.76  3898.77

 Zero-point correction=                           0.070575 (Hartree/Particle)
 Thermal correction to Energy=                    0.086807
 Thermal correction to Enthalpy=                  0.087751
 Thermal correction to Gibbs Free Energy=         0.024705
 Sum of electronic and zero-point Energies=          -1890.565167
 Sum of electronic and thermal Energies=             -1890.548935
 Sum of electronic and thermal Enthalpies=           -1890.547991
 Sum of electronic and thermal Free Energies=        -1890.611037

                     E (Thermal)             CV                S
                      KCal/Mol        Cal/Mol-Kelvin    Cal/Mol-Kelvin
 Total                   54.472             51.196            132.692
 Electronic               0.000              0.000              0.000
 Translational            0.889              2.981             42.869
 Rotational               0.889              2.981             32.148
 Vibrational             52.694             45.234             57.675
 Vibration     1          0.595              1.979              4.986
 Vibration     2          0.596              1.977              4.738
 Vibration     3          0.598              1.969              4.168
 Vibration     4          0.599              1.966              4.014
 Vibration     5          0.601              1.958              3.727
 Vibration     6          0.603              1.952              3.537
 Vibration     7          0.604              1.949              3.450
 Vibration     8          0.608              1.937              3.186
 Vibration     9          0.608              1.934              3.130
 Vibration    10          0.612              1.922              2.927
 Vibration    11          0.616              1.911              2.770
 Vibration    12          0.627              1.873              2.378
 Vibration    13          0.630              1.864              2.305
 Vibration    14          0.671              1.738              1.631
 Vibration    15          0.704              1.639              1.320
 Vibration    16          0.719              1.599              1.220
 Vibration    17          0.747              1.521              1.054
 Vibration    18          0.762              1.481              0.981
 Vibration    19          0.777              1.441              0.914
 Vibration    20          0.802              1.379              0.820
 Vibration    21          0.812              1.352              0.784
 Vibration    22          0.832              1.305              0.723
 Vibration    23          0.839              1.287              0.702
 Vibration    24          0.874              1.209              0.613
 Vibration    25          0.906              1.137              0.542
 Vibration    26          0.975              0.999              0.423

 Optimization completed.
    -- Stationary point found.
 Normal termination of Gaussian 16 at Fri Mar 18 15:13:49 2022.
