 Gaussian 16, Revision C.01,
 Gaussian 16:  ES64L-G16RevC.01  3-Jul-2019

 ---------------------------------------
 # opt freq b3lyp/gen nosymm pseudo=read
 ---------------------------------------

 -------------------
 Title Card Required
 -------------------
 Symbolic Z-matrix:
 Charge =  0 Multiplicity = 1

 SCF Done:  E(RB3LYP) =  -1890.51952837     A.U. after   19 cycles
 SCF Done:  E(RB3LYP) =  -1890.57135768     A.U. after   16 cycles
 SCF Done:  E(RB3LYP) =  -1890.59486595     A.U. after   15 cycles
 SCF Done:  E(RB3LYP) =  -1890.61824831     A.U. after   15 cycles
 SCF Done:  E(RB3LYP) =  -1890.62997031     A.U. after   17 cycles
 SCF Done:  E(RB3LYP) =  -1890.63560061     A.U. after   15 cycles
 SCF Done:  E(RB3LYP) =  -1890.63706628     A.U. after   15 cycles
 SCF Done:  E(RB3LYP) =  -1890.63846755     A.U. after   14 cycles
 SCF Done:  E(RB3LYP) =  -1890.63939954     A.U. after   14 cycles
 SCF Done:  E(RB3LYP) =  -1890.64048097     A.U. after   15 cycles
 SCF Done:  E(RB3LYP) =  -1890.64170365     A.U. after   12 cycles
 SCF Done:  E(RB3LYP) =  -1890.64173136     A.U. after   12 cycles
 SCF Done:  E(RB3LYP) =  -1890.64174299     A.U. after   11 cycles
 SCF Done:  E(RB3LYP) =  -1890.64174740     A.U. after   11 cycles
 SCF Done:  E(RB3LYP) =  -1890.64175012     A.U. after   11 cycles
 SCF Done:  E(RB3LYP) =  -1890.64175134     A.U. after   11 cycles
 SCF Done:  E(RB3LYP) =  -1890.64175151     A.U. after   10 cycles
 SCF Done:  E(RB3LYP) =  -1890.64175159     A.U. after   10 cycles
 SCF Done:  E(RB3LYP) =  -1890.64175162     A.U. after    9 cycles
 Optimization completed.
    -- Stationary point found.
 Normal termination of Gaussian 16 at Fri Mar 11 09:43:04 2022.

 ------------------------------------------------------------------
 #N Geom=AllCheck Guess=TCheck SCRF=Check GenChk RB3LYP/ChkBas Freq
 ------------------------------------------------------------------

 Structure from the checkpoint file:  "/home/chesagar/scratch/Gau-102295.chk"
 -------------------
 Title Card Required
 -------------------
 Charge =  0 Multiplicity = 1

                          Input orientation:
 ---------------------------------------------------------------------
 Center     Atomic      Atomic             Coordinates (Angstroms)
 Number     Number       Type             X           Y           Z
 ---------------------------------------------------------------------
      1         42           0        2.209996    0.200909   -0.348249
      2          6           0        2.448416   -0.310285   -2.324729
      3          6           0        2.182737   -1.735051   -0.097546
      4          8           0        2.591810   -0.692975   -3.404202
      5          8           0        2.165456   -2.884496    0.076541
      6         16           0       -0.099295    0.211665   -0.694738
      7          1           0       -0.447467    1.511834   -0.506297
      8         16           0        2.976353    0.494797    1.943571
      9          1           0        2.811178   -0.712379    2.522888
     10         16           0        2.102187    2.903241   -0.360985
     11          1           0        3.224269    3.375355   -0.943704
     12          1           0        2.532867    3.194085    0.886053
     13         16           0        4.914996    0.607259   -0.715558
     14          1           0        5.290795    0.060180   -1.894119
     15          1           0        5.401536   -0.413373    0.013326
 ---------------------------------------------------------------------

 SCF Done:  E(RB3LYP) =  -1890.64175162     A.U. after    1 cycles

 Alpha  occ. eigenvalues --  -88.92867 -88.91872 -88.85538 -88.83848 -19.23811
 Alpha  occ. eigenvalues --  -19.20035 -10.31161 -10.27906  -8.00472  -7.99520
 Alpha  occ. eigenvalues --   -7.93201  -7.91546  -5.96804  -5.96513  -5.95986
 Alpha  occ. eigenvalues --   -5.95861  -5.95577  -5.95003  -5.89481  -5.89049
 Alpha  occ. eigenvalues --   -5.88941  -5.87860  -5.87442  -5.87222  -2.48118
 Alpha  occ. eigenvalues --   -1.51204  -1.50811  -1.49508  -1.14020  -1.10172
 Alpha  occ. eigenvalues --   -0.79903  -0.79029  -0.70438  -0.69212  -0.57322
 Alpha  occ. eigenvalues --   -0.54224  -0.49767  -0.48885  -0.46603  -0.46068
 Alpha  occ. eigenvalues --   -0.45773  -0.43843  -0.43353  -0.42608  -0.42290
 Alpha  occ. eigenvalues --   -0.41419  -0.38868  -0.38552  -0.33726  -0.31645
 Alpha  occ. eigenvalues --   -0.29515  -0.28599  -0.27564  -0.24046  -0.22511
 Alpha  occ. eigenvalues --   -0.21180
 Alpha virt. eigenvalues --   -0.10877  -0.04292  -0.03181  -0.01635  -0.01528
 Alpha virt. eigenvalues --   -0.00748  -0.00585   0.00268   0.00722   0.02121
 Alpha virt. eigenvalues --    0.02854   0.04081   0.04861   0.06751   0.08560

 Mulliken charges:
               1
     1  Mo  -0.270391
     2  C    0.221908
     3  C    0.244469
     4  O   -0.240595
     5  O   -0.279535
     6  S   -0.068263
     7  H    0.049256
     8  S   -0.222024
     9  H    0.081271
    10  S   -0.012782
    11  H    0.108601
    12  H    0.133033
    13  S    0.003667
    14  H    0.104760
    15  H    0.146624
 Sum of Mulliken charges =  -0.00000

 Dipole moment (field-independent basis, Debye):
    X=              4.2263    Y=              3.2465    Z=             -1.3758  Tot=              5.5040
 Quadrupole moment (field-independent basis, Debye-Ang):
   XX=            -75.6054   YY=            -95.4192   ZZ=           -103.3279
   XY=              5.4069   XZ=             -9.7772   YZ=             -3.9075

  Exact polarizability:     158.404      -0.673     142.720       8.637       4.379     152.643
 Approx polarizability:     291.403      -0.592     267.152      27.680       7.976     312.318

                      1                      2                      3
                      A                      A                      A
 Frequencies --     52.2776                73.6392                82.2761
 Red. masses --      9.0285                 2.7044                 1.8790
 Frc consts  --      0.0145                 0.0086                 0.0075
 IR Inten    --      0.6814                 5.9032                 7.5136

                      4                      5                      6
                      A                      A                      A
 Frequencies --     84.0968                91.5039                96.4619
 Red. masses --      9.3039                 3.8341                 4.8875
 Frc consts  --      0.0388                 0.0189                 0.0268
 IR Inten    --      1.6109                 3.1838                 1.1591

                      7                      8                      9
                      A                      A                      A
 Frequencies --    104.4777               112.3892               122.1096
 Red. masses --     10.4464                13.0533                 5.6621
 Frc consts  --      0.0672                 0.0971                 0.0497
 IR Inten    --      0.0193                 0.1251                 0.8022

                     10                     11                     12
                      A                      A                      A
 Frequencies --    146.8983               157.5315               159.6788
 Red. masses --     12.4555                 2.1025                 3.9726
 Frc consts  --      0.1584                 0.0307                 0.0597
 IR Inten    --      0.4260                 7.0896                 1.7805

                     13                     14                     15
                      A                      A                      A
 Frequencies --    175.2220               305.6581               327.9641
 Red. masses --     13.5035                 6.3297                 1.4756
 Frc consts  --      0.2443                 0.3484                 0.0935
 IR Inten    --      0.6872                20.2679                42.8783

                     16                     17                     18
                      A                      A                      A
 Frequencies --    359.0504               386.1082               413.9452
 Red. masses --     17.5557                 2.0570                 4.9140
 Frc consts  --      1.3335                 0.1807                 0.4961
 IR Inten    --     33.3418                11.6291                 4.1337

                     19                     20                     21
                      A                      A                      A
 Frequencies --    440.4346               448.8843               460.4216
 Red. masses --      2.3624                 1.1886                 1.1375
 Frc consts  --      0.2700                 0.1411                 0.1421
 IR Inten    --     10.3756                 7.6601                 4.4641

                     22                     23                     24
                      A                      A                      A
 Frequencies --    470.8915               486.5799               512.0359
 Red. masses --      3.1171                 8.3917                 1.3327
 Frc consts  --      0.4072                 1.1706                 0.2059
 IR Inten    --      6.3530                15.1778                 3.0263

                     25                     26                     27
                      A                      A                      A
 Frequencies --    546.6122               558.5301               610.9904
 Red. masses --      1.0769                 5.9311                 4.7441
 Frc consts  --      0.1896                 1.0901                 1.0434
 IR Inten    --      1.3017                 3.4149                18.1462

                     28                     29                     30
                      A                      A                      A
 Frequencies --    682.8296               771.6900              1211.1473
 Red. masses --      1.1060                 1.0859                 1.0391
 Frc consts  --      0.3038                 0.3810                 0.8981
 IR Inten    --     10.7020                 4.7799                 2.0069

                     31                     32                     33
                      A                      A                      A
 Frequencies --   1216.5696              2012.5868              2081.5087
 Red. masses --      1.0384                13.3178                13.3253
 Frc consts  --      0.9055                31.7828                34.0159
 IR Inten    --      8.9521               775.8870               769.3511

                     34                     35                     36
                      A                      A                      A
 Frequencies --   2578.5125              2652.0526              2659.9708
 Red. masses --      1.0385                 1.0366                 1.0358
 Frc consts  --      4.0680                 4.2958                 4.3180
 IR Inten    --     27.9309                 9.4187                 8.7555

                     37                     38                     39
                      A                      A                      A
 Frequencies --   2669.6171              2680.4810              2720.1825
 Red. masses --      1.0388                 1.0396                 1.0388
 Frc consts  --      4.3618                 4.4011                 4.5288
 IR Inten    --      7.6702                 0.6288                 3.8198

 - Thermochemistry -
 -------------------
 Temperature   298.150 Kelvin.  Pressure   1.00000 Atm.
 Atom     1 has atomic number 42 and mass  97.90550

 Molecular mass:   287.83057 amu.
 Principal axes and moments of inertia in atomic units:
                           1         2         3
     Eigenvalues --  2863.085493127.807843371.52025
           X            0.44981   0.87115  -0.19688
           Y            0.80369  -0.49096  -0.33622
           Z            0.38956   0.00700   0.92098
 This molecule is an asymmetric top.
 Rotational symmetry number  1.
 Warning -- assumption of classical behavior for rotation
           may cause significant error
 Rotational temperatures (Kelvin)      0.03025     0.02769     0.02569
 Rotational constants (GHZ):           0.63035     0.57700     0.53529
 Zero-point vibrational energy     189750.6 (Joules/Mol)
                                   45.35147 (Kcal/Mol)
 Warning -- explicit consideration of  27 degrees of freedom as
           vibrations may cause significant error
 Vibrational temperatures:     75.22   105.95   118.38   121.00   131.65
          (Kelvin)            138.79   150.32   161.70   175.69   211.35
                              226.65   229.74   252.11   439.77   471.87
                              516.59   555.52   595.57   633.69   645.84
                              662.44   677.51   700.08   736.71   786.45
                              803.60   879.08   982.44  1110.29  1742.57
                             1750.37  2895.66  2994.83  3709.90  3815.71
                             3827.10  3840.98  3856.61  3913.74

 Zero-point correction=                           0.072272 (Hartree/Particle)
 Thermal correction to Energy=                    0.088413
 Thermal correction to Enthalpy=                  0.089357
 Thermal correction to Gibbs Free Energy=         0.027398
 Sum of electronic and zero-point Energies=          -1890.569479
 Sum of electronic and thermal Energies=             -1890.553339
 Sum of electronic and thermal Enthalpies=           -1890.552395
 Sum of electronic and thermal Free Energies=        -1890.614353

                     E (Thermal)             CV                S
                      KCal/Mol        Cal/Mol-Kelvin    Cal/Mol-Kelvin
 Total                   55.480             52.049            130.403
 Electronic               0.000              0.000              0.000
 Translational            0.889              2.981             42.869
 Rotational               0.889              2.981             31.779
 Vibrational             53.702             46.087             55.755
 Vibration     1          0.596              1.977              4.729
 Vibration     2          0.599              1.966              4.054
 Vibration     3          0.600              1.961              3.836
 Vibration     4          0.601              1.960              3.793
 Vibration     5          0.602              1.955              3.628
 Vibration     6          0.603              1.952              3.525
 Vibration     7          0.605              1.946              3.369
 Vibration     8          0.607              1.939              3.227
 Vibration     9          0.610              1.931              3.067
 Vibration    10          0.617              1.906              2.712
 Vibration    11          0.621              1.894              2.579
 Vibration    12          0.622              1.892              2.554
 Vibration    13          0.627              1.873              2.379
 Vibration    14          0.696              1.663              1.386
 Vibration    15          0.711              1.620              1.270
 Vibration    16          0.734              1.557              1.126
 Vibration    17          0.755              1.500              1.015
 Vibration    18          0.778              1.440              0.913
 Vibration    19          0.800              1.382              0.825
 Vibration    20          0.808              1.363              0.799
 Vibration    21          0.818              1.338              0.765
 Vibration    22          0.828              1.315              0.735
 Vibration    23          0.843              1.280              0.693
 Vibration    24          0.867              1.223              0.629
 Vibration    25          0.902              1.147              0.551
 Vibration    26          0.914              1.121              0.527
 Vibration    27          0.970              1.009              0.431

                           ! Non-Optimized Parameters !
 Normal termination of Gaussian 16 at Fri Mar 11 09:43:26 2022.
