 Gaussian 16, Revision C.01,
 Gaussian 16:  ES64L-G16RevC.01  3-Jul-2019

 ---------------------------------------
 # opt freq b3lyp/gen nosymm pseudo=read
 ---------------------------------------

 -------------------
 Title Card Required
 -------------------
 Symbolic Z-matrix:
 Charge =  0 Multiplicity = 1

 SCF Done:  E(RB3LYP) =  -1777.29507967     A.U. after   17 cycles
 SCF Done:  E(RB3LYP) =  -1777.29550809     A.U. after   14 cycles
 SCF Done:  E(RB3LYP) =  -1777.29647931     A.U. after   14 cycles
 SCF Done:  E(RB3LYP) =  -1777.29717080     A.U. after   14 cycles
 SCF Done:  E(RB3LYP) =  -1777.29734693     A.U. after   14 cycles
 SCF Done:  E(RB3LYP) =  -1777.29742409     A.U. after   14 cycles
 SCF Done:  E(RB3LYP) =  -1777.29757637     A.U. after   13 cycles
 SCF Done:  E(RB3LYP) =  -1777.29763424     A.U. after   13 cycles
 SCF Done:  E(RB3LYP) =  -1777.29766121     A.U. after   13 cycles
 SCF Done:  E(RB3LYP) =  -1777.29766489     A.U. after   12 cycles
 SCF Done:  E(RB3LYP) =  -1777.29766798     A.U. after   12 cycles
 SCF Done:  E(RB3LYP) =  -1777.29766884     A.U. after   11 cycles
 SCF Done:  E(RB3LYP) =  -1777.29766908     A.U. after   10 cycles
 SCF Done:  E(RB3LYP) =  -1777.29766914     A.U. after    9 cycles
 Optimization completed.
    -- Stationary point found.
 Normal termination of Gaussian 16 at Sat Jun 18 16:19:28 2022.

 ------------------------------------------------------------------
 #N Geom=AllCheck Guess=TCheck SCRF=Check GenChk RB3LYP/ChkBas Freq
 ------------------------------------------------------------------

 Structure from the checkpoint file:  "/home/chesagar/scratch/Gau-111045.chk"
 -------------------
 Title Card Required
 -------------------
 Charge =  0 Multiplicity = 1

                          Input orientation:
 ---------------------------------------------------------------------
 Center     Atomic      Atomic             Coordinates (Angstroms)
 Number     Number       Type             X           Y           Z
 ---------------------------------------------------------------------
      1         42           0        2.519564    0.128280    0.139776
      2          6           0        2.521132   -1.784739    0.380587
      3          8           0        2.532718   -2.936584    0.576692
      4         16           0        0.481926   -0.016137   -0.961734
      5          1           0        0.141316    1.282343   -1.185328
      6         16           0        2.503604    0.517219    2.442568
      7          1           0        2.445750   -0.689451    3.051866
      8         16           0        2.339054    2.801995   -0.026182
      9          1           0        3.564981    3.359332   -0.135988
     10          1           0        2.211035    3.176512    1.266670
     11         16           0        4.524112   -0.052046   -1.314274
     12          1           0        5.364742   -0.987767   -0.820106
     13          1           0        5.409922    0.959175   -1.139022
 ---------------------------------------------------------------------

 SCF Done:  E(RB3LYP) =  -1777.29766914     A.U. after    1 cycles

 Alpha  occ. eigenvalues --  -88.94233 -88.91732 -88.84498 -88.84269 -19.18080
 Alpha  occ. eigenvalues --  -10.25818  -8.01869  -7.99369  -7.92250  -7.91970
 Alpha  occ. eigenvalues --   -5.98175  -5.97926  -5.97405  -5.95717  -5.95433
 Alpha  occ. eigenvalues --   -5.94843  -5.88537  -5.88264  -5.88099  -5.87983
 Alpha  occ. eigenvalues --   -5.87802  -5.87707  -2.46599  -1.50038  -1.49524
 Alpha  occ. eigenvalues --   -1.47669  -1.08051  -0.81106  -0.78914  -0.69771
 Alpha  occ. eigenvalues --   -0.69175  -0.52693  -0.50596  -0.48620  -0.45068
 Alpha  occ. eigenvalues --   -0.42987  -0.41673  -0.41181  -0.40484  -0.39605
 Alpha  occ. eigenvalues --   -0.37696  -0.35075  -0.31394  -0.29688  -0.28914
 Alpha  occ. eigenvalues --   -0.26937  -0.24511  -0.21117  -0.19666
 Alpha virt. eigenvalues --   -0.08052  -0.06987  -0.02927  -0.02229  -0.01623
 Alpha virt. eigenvalues --   -0.00373   0.01254   0.01427   0.03664   0.04148
 Alpha virt. eigenvalues --    0.05702   0.07799   0.08226   0.09427   0.11197

 Mulliken charges:
               1
     1  Mo  -0.120023
     2  C    0.230845
     3  O   -0.294434
     4  S   -0.137047
     5  H    0.039843
     6  S   -0.208842
     7  H    0.080336
     8  S   -0.035061
     9  H    0.093498
    10  H    0.130059
    11  S   -0.015300
    12  H    0.135247
    13  H    0.100881
 Sum of Mulliken charges =  -0.00000

 Dipole moment (field-independent basis, Debye):
    X=              5.4971    Y=              4.2531    Z=             -1.3114  Tot=              7.0730
 Quadrupole moment (field-independent basis, Debye-Ang):
   XX=            -53.5212   YY=            -85.1773   ZZ=            -93.2230
   XY=             11.2505   XZ=             -8.4175   YZ=             -1.0440

  Exact polarizability:     129.489      -0.979     143.161       2.618      -1.384     132.848
 Approx polarizability:     223.705       3.891     275.289      19.267      -6.878     243.485

                      1                      2                      3
                      A                      A                      A
 Frequencies --     58.6187                79.5250                89.6551
 Red. masses --      9.3036                11.1002                 3.7794
 Frc consts  --      0.0188                 0.0414                 0.0179
 IR Inten    --      1.4579                 0.6224                 4.1767

                      4                      5                      6
                      A                      A                      A
 Frequencies --     98.0407               100.6417               109.3990
 Red. masses --      9.1284                 6.0156                 1.5108
 Frc consts  --      0.0517                 0.0359                 0.0107
 IR Inten    --      0.6035                 0.3479                 9.4349

                      7                      8                      9
                      A                      A                      A
 Frequencies --    125.4694               147.0056               170.0343
 Red. masses --      8.3723                10.5434                13.6429
 Frc consts  --      0.0777                 0.1342                 0.2324
 IR Inten    --      1.6054                 0.8533                 3.1643

                     10                     11                     12
                      A                      A                      A
 Frequencies --    226.7029               238.2495               359.2094
 Red. masses --      1.0592                18.1971                21.4627
 Frc consts  --      0.0321                 0.6086                 1.6317
 IR Inten    --     10.8031                 2.7509                11.4771

                     13                     14                     15
                      A                      A                      A
 Frequencies --    370.1394               408.9139               433.0197
 Red. masses --     11.7549                 1.1021                 1.1316
 Frc consts  --      0.9489                 0.1086                 0.1250
 IR Inten    --     34.5111                13.7402                12.4166

                     16                     17                     18
                      A                      A                      A
 Frequencies --    449.5338               457.9133               496.0578
 Red. masses --      1.1904                 1.1836                 1.4698
 Frc consts  --      0.1417                 0.1462                 0.2131
 IR Inten    --     12.7523                 4.4185                 4.0148

                     19                     20                     21
                      A                      A                      A
 Frequencies --    503.0859               575.9608               580.7834
 Red. masses --      3.3019                 6.5342                 1.8890
 Frc consts  --      0.4924                 1.2771                 0.3754
 IR Inten    --     12.9958                 2.4929                 6.8828

                     22                     23                     24
                      A                      A                      A
 Frequencies --    634.5762               727.8200               778.3708
 Red. masses --      1.5015                 1.0632                 1.0889
 Frc consts  --      0.3562                 0.3318                 0.3887
 IR Inten    --      8.4338                 4.0830                 2.9828

                     25                     26                     27
                      A                      A                      A
 Frequencies --   1218.8945              1258.5511              1993.2161
 Red. masses --      1.0376                 1.0382                13.1845
 Frc consts  --      0.9082                 0.9689                30.8618
 IR Inten    --     14.0297                59.2492               904.8972

                     28                     29                     30
                      A                      A                      A
 Frequencies --   2558.4358              2597.2671              2629.8352
 Red. masses --      1.0385                 1.0378                 1.0390
 Frc consts  --      4.0050                 4.1247                 4.2336
 IR Inten    --     40.8314                45.0918                15.0863

                     31                     32                     33
                      A                      A                      A
 Frequencies --   2642.5219              2646.0164              2662.8278
 Red. masses --      1.0366                 1.0358                 1.0395
 Frc consts  --      4.2646                 4.2729                 4.3428
 IR Inten    --     23.4856                25.2414                 3.1866

 - Thermochemistry -
 -------------------
 Temperature   298.150 Kelvin.  Pressure   1.00000 Atm.
 Atom     1 has atomic number 42 and mass  97.90550

 Molecular mass:   259.83565 amu.
 Principal axes and moments of inertia in atomic units:
                           1         2         3
     Eigenvalues --  2064.897762558.456702745.55235
           X           -0.11658  -0.62102   0.77507
           Y            0.99302  -0.08716   0.07952
           Z            0.01817   0.77893   0.62685
 This molecule is an asymmetric top.
 Rotational symmetry number  1.
 Warning -- assumption of classical behavior for rotation
           may cause significant error
 Rotational temperatures (Kelvin)      0.04195     0.03385     0.03155
 Rotational constants (GHZ):           0.87401     0.70540     0.65733
 Zero-point vibrational energy     170027.0 (Joules/Mol)
                                   40.63742 (Kcal/Mol)
 Warning -- explicit consideration of  21 degrees of freedom as
           vibrations may cause significant error
 Vibrational temperatures:     84.34   114.42   128.99   141.06   144.80
          (Kelvin)            157.40   180.52   211.51   244.64   326.17
                              342.79   516.82   532.55   588.34   623.02
                              646.78   658.84   713.72   723.83   828.68
                              835.62   913.01  1047.17  1119.90  1753.72
                             1810.77  2867.79  3681.02  3736.89  3783.75
                             3802.00  3807.03  3831.22

 Zero-point correction=                           0.064760 (Hartree/Particle)
 Thermal correction to Energy=                    0.078038
 Thermal correction to Enthalpy=                  0.078983
 Thermal correction to Gibbs Free Energy=         0.023582
 Sum of electronic and zero-point Energies=          -1777.232909
 Sum of electronic and thermal Energies=             -1777.219631
 Sum of electronic and thermal Enthalpies=           -1777.218687
 Sum of electronic and thermal Free Energies=        -1777.274087

                     E (Thermal)             CV                S
                      KCal/Mol        Cal/Mol-Kelvin    Cal/Mol-Kelvin
 Total                   48.970             43.098            116.599
 Electronic               0.000              0.000              0.000
 Translational            0.889              2.981             42.564
 Rotational               0.889              2.981             31.051
 Vibrational             47.192             37.136             42.984
 Vibration     1          0.596              1.974              4.503
 Vibration     2          0.600              1.963              3.903
 Vibration     3          0.602              1.956              3.668
 Vibration     4          0.603              1.951              3.493
 Vibration     5          0.604              1.949              3.442
 Vibration     6          0.606              1.942              3.280
 Vibration     7          0.610              1.928              3.014
 Vibration     8          0.617              1.906              2.711
 Vibration     9          0.625              1.879              2.435
 Vibration    10          0.650              1.800              1.905
 Vibration    11          0.656              1.782              1.816
 Vibration    12          0.734              1.556              1.126
 Vibration    13          0.742              1.534              1.079
 Vibration    14          0.773              1.451              0.930
 Vibration    15          0.794              1.398              0.849
 Vibration    16          0.808              1.362              0.797
 Vibration    17          0.816              1.343              0.772
 Vibration    18          0.852              1.259              0.668
 Vibration    19          0.858              1.243              0.650
 Vibration    20          0.932              1.083              0.493
 Vibration    21          0.937              1.073              0.484

 Optimization completed.
    -- Stationary point found.
 Normal termination of Gaussian 16 at Sat Jun 18 16:19:43 2022.
