 Gaussian 16, Revision C.01,
 Gaussian 16:  ES64L-G16RevC.01  3-Jul-2019

 -----------------------------------------------------------
 # opt=(calcfc,ts,noeigen) freq b3lyp/gen nosymm pseudo=read
 -----------------------------------------------------------

 -------------------
 Title Card Required
 -------------------
 Symbolic Z-matrix:
 Charge =  0 Multiplicity = 1

 SCF Done:  E(RB3LYP) =  -1777.26645991     A.U. after   18 cycles
 SCF Done:  E(RB3LYP) =  -1777.26645963     A.U. after   11 cycles
 Optimization completed.
    -- Stationary point found.
 Normal termination of Gaussian 16 at Mon Jun 27 12:16:00 2022.

 ------------------------------------------------------------------
 #N Geom=AllCheck Guess=TCheck SCRF=Check GenChk RB3LYP/ChkBas Freq
 ------------------------------------------------------------------

 Structure from the checkpoint file:  "/localscratch/chegho/Gau-217972.chk"
 -------------------
 Title Card Required
 -------------------
 Charge =  0 Multiplicity = 1

                          Input orientation:
 ---------------------------------------------------------------------
 Center     Atomic      Atomic             Coordinates (Angstroms)
 Number     Number       Type             X           Y           Z
 ---------------------------------------------------------------------
      1         42           0        2.527538    0.359002    0.163335
      2          6           0        2.288747   -1.642472    0.209243
      3          8           0        2.174777   -2.791054    0.257846
      4         16           0        0.243112    0.506189   -0.255515
      5          1           0        0.028662    1.843981   -0.349524
      6         16           0        3.072290    0.171112    2.437425
      7          1           0        3.331512   -1.140260    2.669059
      8         16           0        3.048033    2.634162   -0.643008
      9          1           0        2.276533    1.917200    0.857048
     10          1           0        1.918957    3.377126   -0.606470
     11         16           0        4.786742   -0.184174   -1.075750
     12          1           0        5.570263   -0.320953    0.014475
     13          1           0        5.292691    1.028278   -1.402643
 ---------------------------------------------------------------------

 SCF Done:  E(RB3LYP) =  -1777.26645963     A.U. after    1 cycles

 Alpha  occ. eigenvalues --  -88.94297 -88.87722 -88.86462 -88.85788 -19.23469
 Alpha  occ. eigenvalues --  -10.30448  -8.02009  -7.95309  -7.94117  -7.93471
 Alpha  occ. eigenvalues --   -5.98311  -5.98038  -5.97541  -5.91593  -5.91365
 Alpha  occ. eigenvalues --   -5.90861  -5.90403  -5.89985  -5.89832  -5.89752
 Alpha  occ. eigenvalues --   -5.89293  -5.89231  -2.49725  -1.53084  -1.52192
 Alpha  occ. eigenvalues --   -1.51166  -1.13585  -0.81449  -0.73266  -0.71306
 Alpha  occ. eigenvalues --   -0.70490  -0.56897  -0.51095  -0.46962  -0.46096
 Alpha  occ. eigenvalues --   -0.45925  -0.43586  -0.42373  -0.41859  -0.40420
 Alpha  occ. eigenvalues --   -0.36744  -0.35473  -0.31924  -0.30088  -0.29396
 Alpha  occ. eigenvalues --   -0.28500  -0.25428  -0.24124  -0.21553
 Alpha virt. eigenvalues --   -0.10821  -0.09403  -0.06372  -0.02524  -0.02276
 Alpha virt. eigenvalues --   -0.00816  -0.00483   0.00268   0.02646   0.03623
 Alpha virt. eigenvalues --    0.04287   0.06679   0.08346   0.08717   0.11673

 Mulliken charges:
               1
     1  Mo  -0.243860
     2  C    0.221636
     3  O   -0.234457
     4  S   -0.089787
     5  H    0.044244
     6  S   -0.086517
     7  H    0.052632
     8  S   -0.105181
     9  H    0.058241
    10  H    0.080272
    11  S    0.020239
    12  H    0.146713
    13  H    0.135823
 Sum of Mulliken charges =  -0.00000

 Dipole moment (field-independent basis, Debye):
    X=              3.7747    Y=              0.2846    Z=             -1.4867  Tot=              4.0669
 Quadrupole moment (field-independent basis, Debye-Ang):
   XX=            -63.4796   YY=            -90.1768   ZZ=            -93.8191
   XY=             -4.4984   XZ=             -5.2943   YZ=             -4.0081

  Exact polarizability:     141.813      -4.405     157.518       9.221     -17.927     121.572
 Approx polarizability:     260.583      -0.591     352.710      39.074     -36.064     231.329

 ******    1 imaginary frequencies (negative Signs) ******

                      1                      2                      3
                      A                      A                      A
 Frequencies --   -556.2892                52.4396                89.1535
 Red. masses --      1.1942                10.1040                14.0573
 Frc consts  --      0.2177                 0.0164                 0.0658
 IR Inten    --    579.5419                 1.0479                 0.1341

                      4                      5                      6
                      A                      A                      A
 Frequencies --     95.9616               102.7578               117.9196
 Red. masses --     11.9966                10.0131                 6.1822
 Frc consts  --      0.0651                 0.0623                 0.0506
 IR Inten    --      0.0291                 0.2505                 2.4576

                      7                      8                      9
                      A                      A                      A
 Frequencies --    133.4309               146.6761               177.8875
 Red. masses --      1.9861                 2.1780                 7.7925
 Frc consts  --      0.0208                 0.0276                 0.1453
 IR Inten    --      6.9889                14.6781                15.2255

                     10                     11                     12
                      A                      A                      A
 Frequencies --    215.8767               298.6086               305.1877
 Red. masses --     12.3181                 2.3616                 1.9721
 Frc consts  --      0.3382                 0.1241                 0.1082
 IR Inten    --      8.6720                15.6748                29.3261

                     13                     14                     15
                      A                      A                      A
 Frequencies --    363.1934               365.3794               412.3086
 Red. masses --      8.0692                12.8482                 1.1901
 Frc consts  --      0.6271                 1.0106                 0.1192
 IR Inten    --     25.1429                29.9532                12.6206

                     16                     17                     18
                      A                      A                      A
 Frequencies --    442.6764               459.4703               473.5725
 Red. masses --      4.2012                 1.5837                 1.4668
 Frc consts  --      0.4851                 0.1970                 0.1938
 IR Inten    --      4.2965                60.7095                25.1188

                     19                     20                     21
                      A                      A                      A
 Frequencies --    519.1316               540.4042               584.4740
 Red. masses --      1.6483                 5.3821                 1.1393
 Frc consts  --      0.2617                 0.9261                 0.2293
 IR Inten    --     13.4855                 7.6472                12.7312

                     22                     23                     24
                      A                      A                      A
 Frequencies --    635.2414               784.2164               800.2771
 Red. masses --      1.1303                 1.0578                 1.0434
 Frc consts  --      0.2687                 0.3833                 0.3937
 IR Inten    --     15.9939                10.5327                 0.1916

                     25                     26                     27
                      A                      A                      A
 Frequencies --    874.1104              1211.1556              1776.0950
 Red. masses --      1.0493                 1.0390                 1.0283
 Frc consts  --      0.4724                 0.8979                 1.9111
 IR Inten    --     28.3559                 3.8495                67.6730

                     28                     29                     30
                      A                      A                      A
 Frequencies --   2066.2506              2583.7928              2598.4189
 Red. masses --     11.8656                 1.0386                 1.0390
 Frc consts  --     29.8473                 4.0854                 4.1332
 IR Inten    --    758.1490                41.2372                18.8786

                     31                     32                     33
                      A                      A                      A
 Frequencies --   2632.0572              2639.5080              2685.2663
 Red. masses --      1.0371                 1.0385                 1.0384
 Frc consts  --      4.2333                 4.2628                 4.4115
 IR Inten    --     10.2380                 5.7785                 2.6768

 - Thermochemistry -
 -------------------
 Temperature   298.150 Kelvin.  Pressure   1.00000 Atm.
 Atom     1 has atomic number 42 and mass  97.90550

 Molecular mass:   259.83565 amu.
 Principal axes and moments of inertia in atomic units:
                           1         2         3
     Eigenvalues --  2123.083982315.222972867.96174
           X            0.26836   0.94205   0.20132
           Y            0.88548  -0.32352   0.33356
           Z           -0.37936  -0.08875   0.92098
 This molecule is an asymmetric top.
 Rotational symmetry number  1.
 Warning -- assumption of classical behavior for rotation
           may cause significant error
 Rotational temperatures (Kelvin)      0.04080     0.03741     0.03020
 Rotational constants (GHZ):           0.85006     0.77951     0.62928
    1 imaginary frequencies ignored.
 Zero-point vibrational energy     162589.8 (Joules/Mol)
                                   38.85991 (Kcal/Mol)
 Warning -- explicit consideration of  20 degrees of freedom as
           vibrations may cause significant error
 Vibrational temperatures:     75.45   128.27   138.07   147.85   169.66
          (Kelvin)            191.98   211.03   255.94   310.60   429.63
                              439.10   522.55   525.70   593.22   636.91
                              661.08   681.37   746.91   777.52   840.93
                              913.97  1128.31  1151.42  1257.65  1742.58
                             2555.40  2972.87  3717.50  3738.55  3786.94
                             3797.66  3863.50

 Zero-point correction=                           0.061927 (Hartree/Particle)
 Thermal correction to Energy=                    0.074523
 Thermal correction to Enthalpy=                  0.075467
 Thermal correction to Gibbs Free Energy=         0.021806
 Sum of electronic and zero-point Energies=          -1777.204532
 Sum of electronic and thermal Energies=             -1777.191937
 Sum of electronic and thermal Enthalpies=           -1777.190993
 Sum of electronic and thermal Free Energies=        -1777.244654

                     E (Thermal)             CV                S
                      KCal/Mol        Cal/Mol-Kelvin    Cal/Mol-Kelvin
 Total                   46.764             41.637            112.939
 Electronic               0.000              0.000              0.000
 Translational            0.889              2.981             42.564
 Rotational               0.889              2.981             31.023
 Vibrational             44.986             35.675             39.353
 Vibration     1          0.596              1.977              4.723
 Vibration     2          0.602              1.957              3.679
 Vibration     3          0.603              1.952              3.535
 Vibration     4          0.605              1.947              3.401
 Vibration     5          0.608              1.934              3.134
 Vibration     6          0.613              1.920              2.896
 Vibration     7          0.617              1.906              2.715
 Vibration     8          0.628              1.870              2.350
 Vibration     9          0.645              1.817              1.993
 Vibration    10          0.692              1.676              1.425
 Vibration    11          0.696              1.664              1.388
 Vibration    12          0.737              1.548              1.108
 Vibration    13          0.739              1.544              1.099
 Vibration    14          0.776              1.444              0.918
 Vibration    15          0.802              1.377              0.818
 Vibration    16          0.817              1.340              0.768
 Vibration    17          0.830              1.309              0.728
 Vibration    18          0.874              1.208              0.612
 Vibration    19          0.895              1.161              0.564
 Vibration    20          0.941              1.065              0.477

 Optimization completed.
    -- Stationary point found.
 Normal termination of Gaussian 16 at Mon Jun 27 12:16:20 2022.
