 Gaussian 16, Revision C.01,
 Gaussian 16:  ES64L-G16RevC.01  3-Jul-2019

 ---------------------------------------
 # opt freq b3lyp/gen nosymm pseudo=read
 ---------------------------------------

 -------------------
 Title Card Required
 -------------------
 Symbolic Z-matrix:
 Charge =  0 Multiplicity = 1

 SCF Done:  E(RB3LYP) =  -1777.24976609     A.U. after   17 cycles
 SCF Done:  E(RB3LYP) =  -1777.27088376     A.U. after   15 cycles
 SCF Done:  E(RB3LYP) =  -1777.27345532     A.U. after   14 cycles
 SCF Done:  E(RB3LYP) =  -1777.27289615     A.U. after   15 cycles
 SCF Done:  E(RB3LYP) =  -1777.27370850     A.U. after   13 cycles
 SCF Done:  E(RB3LYP) =  -1777.27369982     A.U. after   13 cycles
 SCF Done:  E(RB3LYP) =  -1777.27377381     A.U. after   13 cycles
 SCF Done:  E(RB3LYP) =  -1777.27377867     A.U. after   11 cycles
 SCF Done:  E(RB3LYP) =  -1777.27378266     A.U. after   11 cycles
 SCF Done:  E(RB3LYP) =  -1777.27378425     A.U. after   10 cycles
 SCF Done:  E(RB3LYP) =  -1777.27378536     A.U. after   11 cycles
 SCF Done:  E(RB3LYP) =  -1777.27378572     A.U. after    9 cycles
 SCF Done:  E(RB3LYP) =  -1777.27378599     A.U. after   10 cycles
 SCF Done:  E(RB3LYP) =  -1777.27378607     A.U. after   10 cycles
 Optimization completed.
    -- Stationary point found.
 Normal termination of Gaussian 16 at Sat Jun 18 11:35:19 2022.

 ------------------------------------------------------------------
 #N Geom=AllCheck Guess=TCheck SCRF=Check GenChk RB3LYP/ChkBas Freq
 ------------------------------------------------------------------

 Structure from the checkpoint file:  "/localscratch/chegho/Gau-56243.chk"
 -------------------
 Title Card Required
 -------------------
 Charge =  0 Multiplicity = 1

                          Input orientation:
 ---------------------------------------------------------------------
 Center     Atomic      Atomic             Coordinates (Angstroms)
 Number     Number       Type             X           Y           Z
 ---------------------------------------------------------------------
      1         42           0        2.483090    0.501506    0.189627
      2          6           0        2.168613   -1.534522    0.157545
      3          8           0        2.053120   -2.679028    0.153964
      4         16           0        0.199430    0.666472   -0.218846
      5          1           0       -0.035044    2.003472   -0.275454
      6         16           0        3.216539    0.053842    2.418739
      7          1           0        3.806012   -1.167367    2.358292
      8         16           0        3.048368    2.503867   -0.954305
      9          1           0        1.940140    1.664495    1.248765
     10          1           0        1.897424    3.214109   -0.968788
     11         16           0        4.832364   -0.188908   -0.854471
     12          1           0        5.568238   -0.260369    0.274005
     13          1           0        5.381563    0.980565   -1.253550
 ---------------------------------------------------------------------

 SCF Done:  E(RB3LYP) =  -1777.27378607     A.U. after    1 cycles

 Alpha  occ. eigenvalues --  -88.93855 -88.87078 -88.86583 -88.85973 -19.25541
 Alpha  occ. eigenvalues --  -10.32464  -8.01561  -7.94713  -7.94195  -7.93693
 Alpha  occ. eigenvalues --   -5.97865  -5.97591  -5.97095  -5.90975  -5.90569
 Alpha  occ. eigenvalues --   -5.90502  -5.90467  -5.90044  -5.89985  -5.89912
 Alpha  occ. eigenvalues --   -5.89531  -5.89435  -2.51090  -1.54382  -1.53721
 Alpha  occ. eigenvalues --   -1.52041  -1.15716  -0.81044  -0.72252  -0.71300
 Alpha  occ. eigenvalues --   -0.70721  -0.58513  -0.50826  -0.47941  -0.47676
 Alpha  occ. eigenvalues --   -0.47497  -0.43437  -0.42195  -0.42018  -0.40572
 Alpha  occ. eigenvalues --   -0.35871  -0.33683  -0.31790  -0.30274  -0.29929
 Alpha  occ. eigenvalues --   -0.28636  -0.26886  -0.25032  -0.22534
 Alpha virt. eigenvalues --   -0.12372  -0.10056  -0.06269  -0.03390  -0.02328
 Alpha virt. eigenvalues --   -0.01504  -0.00915   0.00163   0.01504   0.03650
 Alpha virt. eigenvalues --    0.04128   0.07247   0.08120   0.08703   0.10901

 Mulliken charges:
               1
     1  Mo  -0.214609
     2  C    0.216167
     3  O   -0.209608
     4  S   -0.063058
     5  H    0.055367
     6  S   -0.074711
     7  H    0.038684
     8  S   -0.180675
     9  H    0.064958
    10  H    0.074203
    11  S    0.022308
    12  H    0.133289
    13  H    0.137685
 Sum of Mulliken charges =  -0.00000

 Dipole moment (field-independent basis, Debye):
    X=              3.1511    Y=             -0.6767    Z=             -1.3437  Tot=              3.4918
 Quadrupole moment (field-independent basis, Debye-Ang):
   XX=            -65.3954   YY=            -90.6633   ZZ=            -96.0178
   XY=             -7.0470   XZ=             -3.3972   YZ=             -2.6953

  Exact polarizability:     150.157     -10.629     148.293      11.218     -24.597     125.333
 Approx polarizability:     288.595     -25.913     317.554      44.853     -57.025     253.546

                      1                      2                      3
                      A                      A                      A
 Frequencies --     65.3111                80.0846                92.7237
 Red. masses --     10.1741                11.1558                12.7548
 Frc consts  --      0.0256                 0.0422                 0.0646
 IR Inten    --      0.8492                 0.2105                 0.2544

                      4                      5                      6
                      A                      A                      A
 Frequencies --    111.0516               115.6949               142.3044
 Red. masses --      8.8018                10.7869                 1.9369
 Frc consts  --      0.0640                 0.0851                 0.0231
 IR Inten    --      0.1085                 1.7352                 6.9477

                      7                      8                      9
                      A                      A                      A
 Frequencies --    150.5374               166.3499               187.4401
 Red. masses --      2.2124                 8.8229                10.5948
 Frc consts  --      0.0295                 0.1438                 0.2193
 IR Inten    --      9.6663                 0.8090                 0.6094

                     10                     11                     12
                      A                      A                      A
 Frequencies --    318.8411               344.9832               348.4877
 Red. masses --      5.3977                 2.9917                 3.5594
 Frc consts  --      0.3233                 0.2098                 0.2547
 IR Inten    --     11.4064                19.6748                28.3231

                     13                     14                     15
                      A                      A                      A
 Frequencies --    361.3531               372.3088               381.9083
 Red. masses --      2.2883                 1.9765                 7.3979
 Frc consts  --      0.1760                 0.1614                 0.6357
 IR Inten    --     18.3789                11.8883                 8.1983

                     16                     17                     18
                      A                      A                      A
 Frequencies --    409.3705               468.8201               497.9657
 Red. masses --      1.7166                 1.3798                 1.5791
 Frc consts  --      0.1695                 0.1787                 0.2307
 IR Inten    --     10.7496                 0.8308                18.9673

                     19                     20                     21
                      A                      A                      A
 Frequencies --    520.0956               575.4434               687.8813
 Red. masses --      3.0028                 1.0840                 1.0717
 Frc consts  --      0.4786                 0.2115                 0.2988
 IR Inten    --     23.0723                 3.7692                10.9437

                     22                     23                     24
                      A                      A                      A
 Frequencies --    701.2188               761.4861               791.6059
 Red. masses --      1.0583                 1.0384                 1.0583
 Frc consts  --      0.3066                 0.3548                 0.3907
 IR Inten    --     36.2797                17.0392                15.4248

                     25                     26                     27
                      A                      A                      A
 Frequencies --    815.8853              1217.2782              1912.0830
 Red. masses --      1.0493                 1.0392                 1.0235
 Frc consts  --      0.4116                 0.9072                 2.2048
 IR Inten    --     11.5249                 1.6152                13.6335

                     28                     29                     30
                      A                      A                      A
 Frequencies --   2093.0507              2581.2825              2597.7850
 Red. masses --     12.7296                 1.0386                 1.0387
 Frc consts  --     32.8568                 4.0773                 4.1302
 IR Inten    --    644.9830                33.1535                22.1749

                     31                     32                     33
                      A                      A                      A
 Frequencies --   2638.0778              2647.1249              2686.0994
 Red. masses --      1.0387                 1.0369                 1.0385
 Frc consts  --      4.2592                 4.2807                 4.4146
 IR Inten    --     10.8111                 7.7220                 1.5808

 - Thermochemistry -
 -------------------
 Temperature   298.150 Kelvin.  Pressure   1.00000 Atm.
 Atom     1 has atomic number 42 and mass  97.90550

 Molecular mass:   259.83565 amu.
 Principal axes and moments of inertia in atomic units:
                           1         2         3
     Eigenvalues --  2132.721452213.754452919.98619
           X           -0.17943   0.97917   0.09503
           Y            0.87494   0.11467   0.47046
           Z           -0.44976  -0.16756   0.87729
 This molecule is an asymmetric top.
 Rotational symmetry number  1.
 Warning -- assumption of classical behavior for rotation
           may cause significant error
 Rotational temperatures (Kelvin)      0.04061     0.03913     0.02966
 Rotational constants (GHZ):           0.84622     0.81524     0.61806
 Zero-point vibrational energy     166531.7 (Joules/Mol)
                                   39.80204 (Kcal/Mol)
 Warning -- explicit consideration of  20 degrees of freedom as
           vibrations may cause significant error
 Vibrational temperatures:     93.97   115.22   133.41   159.78   166.46
          (Kelvin)            204.74   216.59   239.34   269.68   458.74
                              496.35   501.40   519.91   535.67   549.48
                              588.99   674.53   716.46   748.30   827.93
                              989.71  1008.90  1095.61  1138.94  1173.88
                             1751.39  2751.06  3011.43  3713.89  3737.63
                             3795.61  3808.62  3864.70

 Zero-point correction=                           0.063429 (Hartree/Particle)
 Thermal correction to Energy=                    0.076291
 Thermal correction to Enthalpy=                  0.077235
 Thermal correction to Gibbs Free Energy=         0.023267
 Sum of electronic and zero-point Energies=          -1777.210357
 Sum of electronic and thermal Energies=             -1777.197495
 Sum of electronic and thermal Enthalpies=           -1777.196551
 Sum of electronic and thermal Free Energies=        -1777.250519

                     E (Thermal)             CV                S
                      KCal/Mol        Cal/Mol-Kelvin    Cal/Mol-Kelvin
 Total                   47.873             42.894            113.584
 Electronic               0.000              0.000              0.000
 Translational            0.889              2.981             42.564
 Rotational               0.889              2.981             31.000
 Vibrational             46.096             36.932             40.019
 Vibration     1          0.597              1.971              4.290
 Vibration     2          0.600              1.963              3.889
 Vibration     3          0.602              1.954              3.602
 Vibration     4          0.607              1.940              3.250
 Vibration     5          0.608              1.936              3.171
 Vibration     6          0.616              1.911              2.773
 Vibration     7          0.618              1.902              2.665
 Vibration     8          0.624              1.884              2.476
 Vibration     9          0.632              1.857              2.253
 Vibration    10          0.705              1.638              1.316
 Vibration    11          0.723              1.585              1.189
 Vibration    12          0.726              1.578              1.173
 Vibration    13          0.736              1.552              1.116
 Vibration    14          0.744              1.529              1.070
 Vibration    15          0.751              1.509              1.032
 Vibration    16          0.774              1.450              0.929
 Vibration    17          0.826              1.319              0.741
 Vibration    18          0.853              1.255              0.663
 Vibration    19          0.875              1.205              0.610
 Vibration    20          0.932              1.084              0.494

                           ! Non-Optimized Parameters !
 Normal termination of Gaussian 16 at Sat Jun 18 11:35:38 2022.
