 Gaussian 16, Revision C.01,
 Gaussian 16:  ES64L-G16RevC.01  3-Jul-2019

 -----------------------------------------------------------
 # opt=(calcfc,ts,noeigen) freq b3lyp/gen nosymm pseudo=read
 -----------------------------------------------------------

 -------------------
 Title Card Required
 -------------------
 Symbolic Z-matrix:
 Charge =  0 Multiplicity = 1

 SCF Done:  E(RB3LYP) =  -1777.26145633     A.U. after   18 cycles
 SCF Done:  E(RB3LYP) =  -1777.26190732     A.U. after   16 cycles
 SCF Done:  E(RB3LYP) =  -1777.26245053     A.U. after   15 cycles
 SCF Done:  E(RB3LYP) =  -1777.26335367     A.U. after   15 cycles
 SCF Done:  E(RB3LYP) =  -1777.26395869     A.U. after   15 cycles
 SCF Done:  E(RB3LYP) =  -1777.26424947     A.U. after   14 cycles
 SCF Done:  E(RB3LYP) =  -1777.26426115     A.U. after   13 cycles
 SCF Done:  E(RB3LYP) =  -1777.26419765     A.U. after   15 cycles
 SCF Done:  E(RB3LYP) =  -1777.26434678     A.U. after   14 cycles
 SCF Done:  E(RB3LYP) =  -1777.26434458     A.U. after   13 cycles
 SCF Done:  E(RB3LYP) =  -1777.26377503     A.U. after   14 cycles
 SCF Done:  E(RB3LYP) =  -1777.26376412     A.U. after   17 cycles
 SCF Done:  E(RB3LYP) =  -1777.26420548     A.U. after   15 cycles
 SCF Done:  E(RB3LYP) =  -1777.26434327     A.U. after   15 cycles
 SCF Done:  E(RB3LYP) =  -1777.26435485     A.U. after   13 cycles
 SCF Done:  E(RB3LYP) =  -1777.26435628     A.U. after   12 cycles
 SCF Done:  E(RB3LYP) =  -1777.26435632     A.U. after   10 cycles
 Optimization completed.
    -- Stationary point found.
 Normal termination of Gaussian 16 at Mon Jun 27 11:51:15 2022.

 ------------------------------------------------------------------
 #N Geom=AllCheck Guess=TCheck SCRF=Check GenChk RB3LYP/ChkBas Freq
 ------------------------------------------------------------------

 Structure from the checkpoint file:  "/localscratch/chegho/Gau-93826.chk"
 -------------------
 Title Card Required
 -------------------
 Charge =  0 Multiplicity = 1

                          Input orientation:
 ---------------------------------------------------------------------
 Center     Atomic      Atomic             Coordinates (Angstroms)
 Number     Number       Type             X           Y           Z
 ---------------------------------------------------------------------
      1         42           0        2.520934    0.515027    0.187970
      2          6           0        1.667945   -1.253647   -0.174660
      3          8           0        1.214807   -2.282455   -0.428250
      4         16           0        0.361716    1.301061    0.498238
      5          1           0        0.558600    2.485931    1.126078
      6         16           0        3.375093   -0.735600    2.096705
      7          1           0        3.229528   -2.035983    1.753558
      8         16           0        2.883203    1.046104   -2.124350
      9          1           0        2.764322    1.481218    1.551680
     10          1           0        1.593272    1.247768   -2.462398
     11         16           0        5.322216    0.751602   -0.067596
     12          1           0        5.523028    1.367479    1.112060
     13          1           0        5.545192    1.869629   -0.793508
 ---------------------------------------------------------------------

 SCF Done:  E(RB3LYP) =  -1777.26435632     A.U. after    1 cycles

 Alpha  occ. eigenvalues --  -88.92448 -88.87230 -88.86722 -88.86368 -19.24850
 Alpha  occ. eigenvalues --  -10.32344  -8.00074  -7.94916  -7.94561  -7.93964
 Alpha  occ. eigenvalues --   -5.96403  -5.96098  -5.95597  -5.91167  -5.90821
 Alpha  occ. eigenvalues --   -5.90761  -5.90684  -5.90402  -5.90297  -5.90257
 Alpha  occ. eigenvalues --   -5.89851  -5.89664  -2.52004  -1.55828  -1.53569
 Alpha  occ. eigenvalues --   -1.53297  -1.15002  -0.79558  -0.72609  -0.71774
 Alpha  occ. eigenvalues --   -0.71161  -0.58086  -0.49496  -0.47367  -0.47185
 Alpha  occ. eigenvalues --   -0.47044  -0.43574  -0.42217  -0.41416  -0.40359
 Alpha  occ. eigenvalues --   -0.34140  -0.33320  -0.33138  -0.31250  -0.29849
 Alpha  occ. eigenvalues --   -0.28536  -0.27374  -0.25286  -0.22662
 Alpha virt. eigenvalues --   -0.13363  -0.10665  -0.06289  -0.03442  -0.02361
 Alpha virt. eigenvalues --   -0.01604  -0.00489   0.00748   0.01504   0.02500
 Alpha virt. eigenvalues --    0.04494   0.06789   0.07753   0.09330   0.11372

 Mulliken charges:
               1
     1  Mo  -0.221905
     2  C    0.247214
     3  O   -0.218640
     4  S   -0.071369
     5  H    0.074855
     6  S   -0.099074
     7  H    0.063629
     8  S   -0.168231
     9  H    0.013600
    10  H    0.112616
    11  S    0.017413
    12  H    0.136742
    13  H    0.113151
 Sum of Mulliken charges =  -0.00000

 Dipole moment (field-independent basis, Debye):
    X=              2.1461    Y=              1.8579    Z=             -0.5514  Tot=              2.8916
 Quadrupole moment (field-independent basis, Debye-Ang):
   XX=            -75.0659   YY=            -84.2784   ZZ=            -95.2850
   XY=              8.9848   XZ=              0.5142   YZ=              0.6175

  Exact polarizability:     153.984      -9.402     127.893       9.125     -17.000     149.009
 Approx polarizability:     290.553     -30.570     264.405      37.751     -34.728     319.947

 ******    1 imaginary frequencies (negative Signs) ******

                      1                      2                      3
                      A                      A                      A
 Frequencies --    -65.8881                64.8769                96.0271
 Red. masses --      8.6659                17.0781                 9.5652
 Frc consts  --      0.0222                 0.0424                 0.0520
 IR Inten    --      2.1102                 1.8846                 1.4450

                      4                      5                      6
                      A                      A                      A
 Frequencies --    105.5550               120.9705               130.1170
 Red. masses --     15.5021                 3.6316                 8.6795
 Frc consts  --      0.1018                 0.0313                 0.0866
 IR Inten    --      1.2810                 1.9920                 0.5307

                      7                      8                      9
                      A                      A                      A
 Frequencies --    141.1969               151.4904               163.9317
 Red. masses --      5.6891                 8.6791                 1.7273
 Frc consts  --      0.0668                 0.1174                 0.0273
 IR Inten    --      4.0915                 1.5373                 8.5555

                     10                     11                     12
                      A                      A                      A
 Frequencies --    280.0228               309.7485               333.8318
 Red. masses --      3.3377                 1.6136                 3.1582
 Frc consts  --      0.1542                 0.0912                 0.2074
 IR Inten    --     25.8749                 7.9862                36.1429

                     13                     14                     15
                      A                      A                      A
 Frequencies --    364.4057               378.0780               389.3111
 Red. masses --      4.5175                 3.7850                 2.7955
 Frc consts  --      0.3534                 0.3188                 0.2496
 IR Inten    --     13.7374                34.8005                24.1134

                     16                     17                     18
                      A                      A                      A
 Frequencies --    443.6638               447.7822               467.0288
 Red. masses --      1.8576                 1.7629                 1.5255
 Frc consts  --      0.2154                 0.2083                 0.1960
 IR Inten    --      4.8045                28.8387                 0.2918

                     19                     20                     21
                      A                      A                      A
 Frequencies --    495.6051               527.1457               625.4489
 Red. masses --      2.4227                 1.0854                 1.0752
 Frc consts  --      0.3506                 0.1777                 0.2478
 IR Inten    --     26.0338                 2.4598                 7.0717

                     22                     23                     24
                      A                      A                      A
 Frequencies --    740.6647               783.3960               793.7298
 Red. masses --      1.0628                 1.0549                 1.0812
 Frc consts  --      0.3435                 0.3814                 0.4013
 IR Inten    --      9.6667                 4.1623                22.2139

                     25                     26                     27
                      A                      A                      A
 Frequencies --    817.2936              1219.3054              1812.9322
 Red. masses --      1.0699                 1.0389                 1.0217
 Frc consts  --      0.4211                 0.9100                 1.9786
 IR Inten    --     54.0325                 0.7623                37.2573

                     28                     29                     30
                      A                      A                      A
 Frequencies --   2085.6907              2614.4679              2640.3857
 Red. masses --     12.9514                 1.0387                 1.0386
 Frc consts  --     33.1947                 4.1833                 4.2663
 IR Inten    --    630.8759                10.4863                10.7736

                     31                     32                     33
                      A                      A                      A
 Frequencies --   2666.7316              2688.3013              2719.4659
 Red. masses --      1.0365                 1.0381                 1.0389
 Frc consts  --      4.3428                 4.4203                 4.5268
 IR Inten    --      2.6401                 4.6806                 5.1538

 - Thermochemistry -
 -------------------
 Temperature   298.150 Kelvin.  Pressure   1.00000 Atm.
 Atom     1 has atomic number 42 and mass  97.90550

 Molecular mass:   259.83565 amu.
 Principal axes and moments of inertia in atomic units:
                           1         2         3
     Eigenvalues --  1988.490072409.481553045.83090
           X            0.99359   0.08999  -0.06844
           Y            0.10696  -0.55217   0.82684
           Z           -0.03662   0.82886   0.55825
 This molecule is an asymmetric top.
 Rotational symmetry number  1.
 Warning -- assumption of classical behavior for rotation
           may cause significant error
 Rotational temperatures (Kelvin)      0.04356     0.03595     0.02844
 Rotational constants (GHZ):           0.90759     0.74902     0.59253
    1 imaginary frequencies ignored.
 Zero-point vibrational energy     165195.9 (Joules/Mol)
                                   39.48277 (Kcal/Mol)
 Warning -- explicit consideration of  19 degrees of freedom as
           vibrations may cause significant error
 Vibrational temperatures:     93.34   138.16   151.87   174.05   187.21
          (Kelvin)            203.15   217.96   235.86   402.89   445.66
                              480.31   524.30   543.97   560.13   638.33
                              644.26   671.95   713.07   758.45   899.88
                             1065.65  1127.13  1142.00  1175.90  1754.31
                             2608.41  3000.84  3761.64  3798.93  3836.83
                             3867.87  3912.70

 Zero-point correction=                           0.062920 (Hartree/Particle)
 Thermal correction to Energy=                    0.075261
 Thermal correction to Enthalpy=                  0.076205
 Thermal correction to Gibbs Free Energy=         0.023447
 Sum of electronic and zero-point Energies=          -1777.201437
 Sum of electronic and thermal Energies=             -1777.189095
 Sum of electronic and thermal Enthalpies=           -1777.188151
 Sum of electronic and thermal Free Energies=        -1777.240909

                     E (Thermal)             CV                S
                      KCal/Mol        Cal/Mol-Kelvin    Cal/Mol-Kelvin
 Total                   47.227             41.350            111.038
 Electronic               0.000              0.000              0.000
 Translational            0.889              2.981             42.564
 Rotational               0.889              2.981             31.057
 Vibrational             45.449             35.389             37.417
 Vibration     1          0.597              1.971              4.303
 Vibration     2          0.603              1.952              3.533
 Vibration     3          0.605              1.945              3.349
 Vibration     4          0.609              1.932              3.085
 Vibration     5          0.612              1.923              2.944
 Vibration     6          0.615              1.912              2.788
 Vibration     7          0.619              1.901              2.653
 Vibration     8          0.623              1.887              2.504
 Vibration     9          0.680              1.711              1.534
 Vibration    10          0.699              1.655              1.364
 Vibration    11          0.715              1.608              1.241
 Vibration    12          0.738              1.546              1.103
 Vibration    13          0.748              1.517              1.047
 Vibration    14          0.757              1.493              1.003
 Vibration    15          0.803              1.375              0.815
 Vibration    16          0.807              1.366              0.803
 Vibration    17          0.824              1.323              0.746
 Vibration    18          0.851              1.260              0.669
 Vibration    19          0.882              1.190              0.594

 Optimization completed.
    -- Stationary point found.
 Normal termination of Gaussian 16 at Mon Jun 27 11:51:39 2022.
