 Gaussian 16, Revision C.01,
 Gaussian 16:  ES64L-G16RevC.01  3-Jul-2019

 ---------------------------------------
 # opt freq b3lyp/gen nosymm pseudo=read
 ---------------------------------------

 -------------------
 Title Card Required
 -------------------
 Symbolic Z-matrix:
 Charge =  0 Multiplicity = 1

 SCF Done:  E(RB3LYP) =  -1777.27629707     A.U. after   17 cycles
 SCF Done:  E(RB3LYP) =  -1777.27907994     A.U. after   14 cycles
 SCF Done:  E(RB3LYP) =  -1777.27973186     A.U. after   13 cycles
 SCF Done:  E(RB3LYP) =  -1777.28002483     A.U. after   13 cycles
 SCF Done:  E(RB3LYP) =  -1777.28015930     A.U. after   13 cycles
 SCF Done:  E(RB3LYP) =  -1777.28020151     A.U. after   13 cycles
 SCF Done:  E(RB3LYP) =  -1777.28022262     A.U. after   13 cycles
 SCF Done:  E(RB3LYP) =  -1777.28022734     A.U. after   11 cycles
 SCF Done:  E(RB3LYP) =  -1777.28022843     A.U. after    9 cycles
 SCF Done:  E(RB3LYP) =  -1777.28022943     A.U. after   11 cycles
 SCF Done:  E(RB3LYP) =  -1777.28022996     A.U. after   10 cycles
 SCF Done:  E(RB3LYP) =  -1777.28023022     A.U. after   10 cycles
 SCF Done:  E(RB3LYP) =  -1777.28023035     A.U. after   10 cycles
 SCF Done:  E(RB3LYP) =  -1777.28023052     A.U. after   10 cycles
 SCF Done:  E(RB3LYP) =  -1777.28023064     A.U. after   10 cycles
 SCF Done:  E(RB3LYP) =  -1777.28023074     A.U. after   10 cycles
 SCF Done:  E(RB3LYP) =  -1777.28023084     A.U. after   10 cycles
 SCF Done:  E(RB3LYP) =  -1777.28023091     A.U. after   10 cycles
 SCF Done:  E(RB3LYP) =  -1777.28023096     A.U. after   10 cycles
 Optimization completed.
    -- Stationary point found.
 Normal termination of Gaussian 16 at Fri Jun 24 10:20:40 2022.

 ------------------------------------------------------------------
 #N Geom=AllCheck Guess=TCheck SCRF=Check GenChk RB3LYP/ChkBas Freq
 ------------------------------------------------------------------

 Structure from the checkpoint file:  "/scratch/5553.lucifer/Gau-148197.chk"
 -------------------
 Title Card Required
 -------------------
 Charge =  0 Multiplicity = 1

                          Input orientation:
 ---------------------------------------------------------------------
 Center     Atomic      Atomic             Coordinates (Angstroms)
 Number     Number       Type             X           Y           Z
 ---------------------------------------------------------------------
      1         42           0        2.694707    0.335081    0.248037
      2          6           0        1.187865   -0.908884   -0.263111
      3          8           0        0.368174   -1.653271   -0.576635
      4         16           0        0.713904    1.455325    1.054904
      5          1           0        1.114117    2.315170    2.015050
      6         16           0        3.750319   -1.360709    1.465928
      7          1           0        2.980789   -2.463022    1.315460
      8         16           0        3.280659    0.652444   -2.041983
      9          1           0        2.936793    1.315984    1.576218
     10          1           0        2.303091   -0.010502   -2.695329
     11         16           0        5.035437    1.590926    0.497615
     12          1           0        4.669945    2.887905    0.444455
     13          1           0        5.524058    1.601689   -0.765085
 ---------------------------------------------------------------------

 SCF Done:  E(RB3LYP) =  -1777.28023096     A.U. after    1 cycles

 Alpha  occ. eigenvalues --  -88.93627 -88.87023 -88.86215 -88.86052 -19.25071
 Alpha  occ. eigenvalues --  -10.32015  -8.01227  -7.94639  -7.93915  -7.93843
 Alpha  occ. eigenvalues --   -5.97535  -5.97271  -5.96759  -5.90914  -5.90593
 Alpha  occ. eigenvalues --   -5.90284  -5.90186  -5.90139  -5.89744  -5.89722
 Alpha  occ. eigenvalues --   -5.89681  -5.89519  -2.51008  -1.54556  -1.53064
 Alpha  occ. eigenvalues --   -1.52330  -1.15246  -0.80584  -0.72134  -0.71426
 Alpha  occ. eigenvalues --   -0.71048  -0.58153  -0.50282  -0.47961  -0.47366
 Alpha  occ. eigenvalues --   -0.47191  -0.44277  -0.42079  -0.41206  -0.39487
 Alpha  occ. eigenvalues --   -0.36433  -0.33402  -0.31630  -0.31457  -0.29438
 Alpha  occ. eigenvalues --   -0.28296  -0.27344  -0.24988  -0.22646
 Alpha virt. eigenvalues --   -0.11683  -0.09223  -0.06136  -0.02919  -0.02330
 Alpha virt. eigenvalues --   -0.01866  -0.01288   0.01066   0.01810   0.02886
 Alpha virt. eigenvalues --    0.04951   0.07079   0.07777   0.09722   0.10763

 Mulliken charges:
               1
     1  Mo  -0.162654
     2  C    0.239739
     3  O   -0.214558
     4  S   -0.087420
     5  H    0.070202
     6  S   -0.111669
     7  H    0.067287
     8  S   -0.184270
     9  H   -0.024701
    10  H    0.084099
    11  S    0.064012
    12  H    0.131530
    13  H    0.128402
 Sum of Mulliken charges =   0.00000

 Dipole moment (field-independent basis, Debye):
    X=              1.7978    Y=              1.9419    Z=             -0.3148  Tot=              2.6650
 Quadrupole moment (field-independent basis, Debye-Ang):
   XX=            -81.3689   YY=            -81.2587   ZZ=            -92.2668
   XY=             13.3129   XZ=             -1.6764   YZ=              4.2613

  Exact polarizability:     148.796      -1.646     134.201       0.645      -2.497     135.204
 Approx polarizability:     281.506     -16.134     261.309      11.864      -2.095     269.513

                      1                      2                      3
                      A                      A                      A
 Frequencies --     47.7968                71.9458                81.8918
 Red. masses --      4.5032                12.3799                10.8832
 Frc consts  --      0.0061                 0.0378                 0.0430
 IR Inten    --      5.1443                 0.5333                 0.3914

                      4                      5                      6
                      A                      A                      A
 Frequencies --     96.9836               114.9076               132.6566
 Red. masses --     15.9870                15.7061                 3.2444
 Frc consts  --      0.0886                 0.1222                 0.0336
 IR Inten    --      0.1794                 0.2446                 2.6635

                      7                      8                      9
                      A                      A                      A
 Frequencies --    142.7014               168.2654               194.8486
 Red. masses --      1.6514                 9.1160                15.6887
 Frc consts  --      0.0198                 0.1521                 0.3509
 IR Inten    --      9.0230                 4.6882                 0.9234

                     10                     11                     12
                      A                      A                      A
 Frequencies --    269.4172               323.7744               345.8204
 Red. masses --      2.5300                 3.9625                 1.6890
 Frc consts  --      0.1082                 0.2447                 0.1190
 IR Inten    --      9.7714                 5.3464                27.3467

                     13                     14                     15
                      A                      A                      A
 Frequencies --    363.2226               382.1543               400.0537
 Red. masses --      9.6752                 1.3539                 2.5361
 Frc consts  --      0.7521                 0.1165                 0.2391
 IR Inten    --     42.1150                 1.2235                42.8478

                     16                     17                     18
                      A                      A                      A
 Frequencies --    416.5763               466.5244               506.1349
 Red. masses --      2.5190                 2.8764                 1.9013
 Frc consts  --      0.2576                 0.3689                 0.2870
 IR Inten    --      8.8447                 2.2922                 8.5954

                     19                     20                     21
                      A                      A                      A
 Frequencies --    561.3645               569.9807               608.8522
 Red. masses --      1.6807                 1.2567                 1.1246
 Frc consts  --      0.3121                 0.2406                 0.2456
 IR Inten    --      5.8184                 6.8656                11.3614

                     22                     23                     24
                      A                      A                      A
 Frequencies --    704.6416               766.0675               785.6971
 Red. masses --      1.0674                 1.0474                 1.0414
 Frc consts  --      0.3123                 0.3621                 0.3788
 IR Inten    --     10.5960                 8.2255                11.1734

                     25                     26                     27
                      A                      A                      A
 Frequencies --    945.4981              1221.5964              1904.4388
 Red. masses --      1.0320                 1.0377                 1.0229
 Frc consts  --      0.5436                 0.9124                 2.1859
 IR Inten    --     53.0293                 7.8403                10.6542

                     28                     29                     30
                      A                      A                      A
 Frequencies --   2093.4869              2633.5368              2638.5995
 Red. masses --     12.7062                 1.0393                 1.0367
 Frc consts  --     32.8101                 4.2468                 4.2527
 IR Inten    --    620.9178                12.2825                 4.3358

                     31                     32                     33
                      A                      A                      A
 Frequencies --   2662.3550              2670.3866              2694.0604
 Red. masses --      1.0392                 1.0385                 1.0387
 Frc consts  --      4.3398                 4.3633                 4.4417
 IR Inten    --      7.8796                 6.3477                 1.2451

 - Thermochemistry -
 -------------------
 Temperature   298.150 Kelvin.  Pressure   1.00000 Atm.
 Atom     1 has atomic number 42 and mass  97.90550

 Molecular mass:   259.83565 amu.
 Principal axes and moments of inertia in atomic units:
                           1         2         3
     Eigenvalues --  1888.485782677.685782788.71819
           X            0.94447   0.22389  -0.24050
           Y            0.32846  -0.62348   0.70950
           Z           -0.00890   0.74910   0.66240
 This molecule is an asymmetric top.
 Rotational symmetry number  1.
 Warning -- assumption of classical behavior for rotation
           may cause significant error
 Rotational temperatures (Kelvin)      0.04586     0.03235     0.03106
 Rotational constants (GHZ):           0.95566     0.67399     0.64716
 Zero-point vibrational energy     167394.9 (Joules/Mol)
                                   40.00834 (Kcal/Mol)
 Warning -- explicit consideration of  21 degrees of freedom as
           vibrations may cause significant error
 Vibrational temperatures:     68.77   103.51   117.82   139.54   165.33
          (Kelvin)            190.86   205.32   242.10   280.34   387.63
                              465.84   497.56   522.60   549.83   575.59
                              599.36   671.22   728.22   807.68   820.08
                              876.00  1013.82  1102.20  1130.44  1360.36
                             1757.60  2740.06  3012.06  3789.07  3796.36
                             3830.54  3842.09  3876.15

 Zero-point correction=                           0.063757 (Hartree/Particle)
 Thermal correction to Energy=                    0.076770
 Thermal correction to Enthalpy=                  0.077714
 Thermal correction to Gibbs Free Energy=         0.022935
 Sum of electronic and zero-point Energies=          -1777.216474
 Sum of electronic and thermal Energies=             -1777.203461
 Sum of electronic and thermal Enthalpies=           -1777.202517
 Sum of electronic and thermal Free Energies=        -1777.257296

                     E (Thermal)             CV                S
                      KCal/Mol        Cal/Mol-Kelvin    Cal/Mol-Kelvin
 Total                   48.174             42.869            115.293
 Electronic               0.000              0.000              0.000
 Translational            0.889              2.981             42.564
 Rotational               0.889              2.981             31.023
 Vibrational             46.396             36.907             41.705
 Vibration     1          0.595              1.978              4.907
 Vibration     2          0.598              1.967              4.099
 Vibration     3          0.600              1.962              3.845
 Vibration     4          0.603              1.951              3.514
 Vibration     5          0.608              1.937              3.184
 Vibration     6          0.613              1.921              2.907
 Vibration     7          0.616              1.911              2.767
 Vibration     8          0.625              1.882              2.455
 Vibration     9          0.636              1.847              2.181
 Vibration    10          0.674              1.729              1.600
 Vibration    11          0.708              1.628              1.291
 Vibration    12          0.724              1.584              1.185
 Vibration    13          0.737              1.548              1.108
 Vibration    14          0.752              1.508              1.031
 Vibration    15          0.766              1.470              0.962
 Vibration    16          0.780              1.434              0.904
 Vibration    17          0.824              1.324              0.747
 Vibration    18          0.861              1.236              0.643
 Vibration    19          0.917              1.115              0.521
 Vibration    20          0.926              1.096              0.504
 Vibration    21          0.968              1.013              0.435

                           ! Non-Optimized Parameters !
 Normal termination of Gaussian 16 at Fri Jun 24 10:21:28 2022.
