 Gaussian 16, Revision C.01,
 Gaussian 16:  ES64L-G16RevC.01  3-Jul-2019

 ---------------------------------------
 # opt freq b3lyp/gen nosymm pseudo=read
 ---------------------------------------

 -------------------
 Title Card Required
 -------------------
 Symbolic Z-matrix:
 Charge =  0 Multiplicity = 1

 SCF Done:  E(RB3LYP) =  -634.260869778     A.U. after   15 cycles
 SCF Done:  E(RB3LYP) =  -634.260872337     A.U. after    9 cycles
 SCF Done:  E(RB3LYP) =  -634.260872513     A.U. after    9 cycles
 Optimization completed.
    -- Stationary point found.
 Normal termination of Gaussian 16 at Thu Nov  4 09:20:21 2021.

 ------------------------------------------------------------------
 #N Geom=AllCheck Guess=TCheck SCRF=Check GenChk RB3LYP/ChkBas Freq
 ------------------------------------------------------------------

 Structure from the checkpoint file:  "MoCO5_SP.chk"
 -------------------
 Title Card Required
 -------------------
 Charge =  0 Multiplicity = 1

                          Input orientation:
 ---------------------------------------------------------------------
 Center     Atomic      Atomic             Coordinates (Angstroms)
 Number     Number       Type             X           Y           Z
 ---------------------------------------------------------------------
      1         42           0        0.318089    0.000002    0.000000
      2          6           0        0.313917   -0.000009    2.075549
      3          6           0        0.313907    2.075551   -0.000040
      4          6           0        2.276894    0.000002   -0.000015
      5          6           0        0.313905   -2.075547   -0.000041
      6          6           0        0.313900   -0.000011   -2.075549
      7          8           0        0.340642    3.225842    0.000092
      8          8           0        0.340649    0.000011   -3.225840
      9          8           0        3.435698   -0.000007   -0.000029
     10          8           0        0.340640   -3.225839    0.000089
     11          8           0        0.340663    0.000014    3.225841
 ---------------------------------------------------------------------

 SCF Done:  E(RB3LYP) =  -634.260872513     A.U. after    1 cycles

 Alpha  occ. eigenvalues --  -19.24802 -19.24800 -19.24800 -19.24800 -19.22013
 Alpha  occ. eigenvalues --  -10.31794 -10.31788 -10.31788 -10.31782 -10.30295
 Alpha  occ. eigenvalues --   -2.47373  -1.50219  -1.50071  -1.50071  -1.15061
 Alpha  occ. eigenvalues --   -1.15027  -1.15027  -1.15024  -1.12289  -0.59519
 Alpha  occ. eigenvalues --   -0.57824  -0.57203  -0.57203  -0.55867  -0.49024
 Alpha  occ. eigenvalues --   -0.47908  -0.47272  -0.47270  -0.47270  -0.47084
 Alpha  occ. eigenvalues --   -0.46899  -0.46899  -0.46494  -0.46030  -0.44579
 Alpha  occ. eigenvalues --   -0.44579  -0.44148  -0.41092  -0.41092  -0.24997
 Alpha  occ. eigenvalues --   -0.24401  -0.24401
 Alpha virt. eigenvalues --   -0.12115  -0.05626  -0.05626  -0.04030  -0.00781
 Alpha virt. eigenvalues --   -0.00781  -0.00469   0.00129   0.02207   0.02207
 Alpha virt. eigenvalues --    0.02549   0.02821   0.02821   0.03679   0.05123

 Mulliken charges:
               1
     1  Mo  -0.012668
     2  C    0.240506
     3  C    0.240508
     4  C    0.228150
     5  C    0.240509
     6  C    0.240510
     7  O   -0.227542
     8  O   -0.227542
     9  O   -0.267347
    10  O   -0.227542
    11  O   -0.227542
 Sum of Mulliken charges =  -0.00000

 Dipole moment (field-independent basis, Debye):
    X=             -2.2691    Y=             -0.0001    Z=             -0.0003  Tot=              2.2691
 Quadrupole moment (field-independent basis, Debye-Ang):
   XX=            -78.0836   YY=            -79.7181   ZZ=            -79.7181
   XY=              0.0000   XZ=             -0.0001   YZ=             -0.0000

  Exact polarizability:      78.492       0.000     130.681       0.000       0.000     130.681
 Approx polarizability:     163.213       0.000     291.912       0.001       0.000     291.911

                      1                      2                      3
                      A                      A                      A
 Frequencies --     55.0264                71.7425                71.7432
 Red. masses --     15.3553                16.3137                16.3137
 Frc consts  --      0.0274                 0.0495                 0.0495
 IR Inten    --      0.0000                 0.2093                 0.2093

                      4                      5                      6
                      A                      A                      A
 Frequencies --     82.5961                87.9259                93.9805
 Red. masses --     15.4588                20.3998                16.7394
 Frc consts  --      0.0621                 0.0929                 0.0871
 IR Inten    --      0.0000                 0.4610                 1.2747

                      7                      8                      9
                      A                      A                      A
 Frequencies --     93.9806               335.6188               341.4344
 Red. masses --     16.7394                12.7550                13.1703
 Frc consts  --      0.0871                 0.8465                 0.9046
 IR Inten    --      1.2747                 0.0000                 5.0919

                     10                     11                     12
                      A                      A                      A
 Frequencies --    341.4349               364.5107               364.5109
 Red. masses --     13.1703                17.0468                17.0469
 Frc consts  --      0.9046                 1.3345                 1.3345
 IR Inten    --      5.0914                53.4490                53.4486

                     13                     14                     15
                      A                      A                      A
 Frequencies --    385.7801               396.5050               474.4434
 Red. masses --     14.0694                14.1411                15.1015
 Frc consts  --      1.2337                 1.3099                 2.0028
 IR Inten    --      0.0000                 2.9869                 2.2372

                     16                     17                     18
                      A                      A                      A
 Frequencies --    484.6626               521.2743               546.2619
 Red. masses --     12.3206                12.3916                12.3620
 Frc consts  --      1.7051                 1.9839                 2.1734
 IR Inten    --      0.0000                 0.0000                 8.1555

                     19                     20                     21
                      A                      A                      A
 Frequencies --    546.2622               588.5915               588.5917
 Red. masses --     12.3620                14.2829                14.2829
 Frc consts  --      2.1734                 2.9154                 2.9154
 IR Inten    --      8.1555                40.9927                40.9922

                     22                     23                     24
                      A                      A                      A
 Frequencies --    618.5805              2038.1107              2067.7933
 Red. masses --     15.2287                13.3644                13.4438
 Frc consts  --      3.4333                32.7081                33.8676
 IR Inten    --     76.3799               852.6943              1959.4742

                     25                     26                     27
                      A                      A                      A
 Frequencies --   2067.7948              2093.2032              2171.3677
 Red. masses --     13.4438                13.3679                13.3180
 Frc consts  --     33.8677                34.5093                36.9962
 IR Inten    --   1959.4743                 0.0000                 3.8586

 - Thermochemistry -
 -------------------
 Temperature   298.150 Kelvin.  Pressure   1.00000 Atm.
 Atom     1 has atomic number 42 and mass  97.90550

 Molecular mass:   237.88007 amu.
 Principal axes and moments of inertia in atomic units:
                           1         2         3
     Eigenvalues --  2194.105512194.107813115.94971
           X           -0.00000  -0.00000   1.00000
           Y            0.76222  -0.64731   0.00000
           Z            0.64731   0.76222   0.00000
 This molecule is an asymmetric top.
 Rotational symmetry number  1.
 Warning -- assumption of classical behavior for rotation
           may cause significant error
 Rotational temperatures (Kelvin)      0.03948     0.03948     0.02780
 Rotational constants (GHZ):           0.82254     0.82254     0.57919
 Zero-point vibrational energy     107028.3 (Joules/Mol)
                                   25.58037 (Kcal/Mol)
 Warning -- explicit consideration of  22 degrees of freedom as
           vibrations may cause significant error
 Vibrational temperatures:     79.17   103.22   103.22   118.84   126.51
          (Kelvin)            135.22   135.22   482.88   491.25   491.25
                              524.45   524.45   555.05   570.48   682.62
                              697.32   750.00   785.95   785.95   846.85
                              846.85   890.00  2932.39  2975.09  2975.10
                             3011.65  3124.11

 Zero-point correction=                           0.040765 (Hartree/Particle)
 Thermal correction to Energy=                    0.053025
 Thermal correction to Enthalpy=                  0.053969
 Thermal correction to Gibbs Free Energy=         0.000162
 Sum of electronic and zero-point Energies=           -634.220108
 Sum of electronic and thermal Energies=              -634.207848
 Sum of electronic and thermal Enthalpies=            -634.206904
 Sum of electronic and thermal Free Energies=         -634.260711

                     E (Thermal)             CV                S
                      KCal/Mol        Cal/Mol-Kelvin    Cal/Mol-Kelvin
 Total                   33.273             39.794            113.246
 Electronic               0.000              0.000              0.000
 Translational            0.889              2.981             42.301
 Rotational               0.889              2.981             31.084
 Vibrational             31.496             33.832             39.861
 Vibration     1          0.596              1.976              4.628
 Vibration     2          0.598              1.967              4.105
 Vibration     3          0.598              1.967              4.105
 Vibration     4          0.600              1.961              3.828
 Vibration     5          0.601              1.958              3.706
 Vibration     6          0.603              1.953              3.575
 Vibration     7          0.603              1.953              3.575
 Vibration     8          0.717              1.604              1.233
 Vibration     9          0.721              1.593              1.205
 Vibration    10          0.721              1.593              1.205
 Vibration    11          0.738              1.545              1.103
 Vibration    12          0.738              1.545              1.103
 Vibration    13          0.754              1.501              1.016
 Vibration    14          0.763              1.478              0.976
 Vibration    15          0.831              1.307              0.725
 Vibration    16          0.841              1.284              0.698
 Vibration    17          0.876              1.203              0.607
 Vibration    18          0.901              1.148              0.552
 Vibration    19          0.901              1.148              0.552
 Vibration    20          0.946              1.056              0.470
 Vibration    21          0.946              1.056              0.470
 Vibration    22          0.978              0.993              0.419

 Optimization completed.
    -- Stationary point found.
 Normal termination of Gaussian 16 at Thu Nov  4 09:20:46 2021.
