 Gaussian 16, Revision C.01,
 Gaussian 16:  ES64L-G16RevC.01  3-Jul-2019

 -----------------------------------------------------------
 # opt=(calcfc,ts,noeigen) freq b3lyp/gen nosymm pseudo=read
 -----------------------------------------------------------

 -------------------
 Title Card Required
 -------------------
 Symbolic Z-matrix:
 Charge =  0 Multiplicity = 1

 SCF Done:  E(RB3LYP) =  -1777.26019930     A.U. after   18 cycles
 SCF Done:  E(RB3LYP) =  -1777.26019872     A.U. after   12 cycles
 Optimization completed.
    -- Stationary point found.
 Normal termination of Gaussian 16 at Sat Jun 18 13:10:17 2022.

 ------------------------------------------------------------------
 #N Geom=AllCheck Guess=TCheck SCRF=Check GenChk RB3LYP/ChkBas Freq
 ------------------------------------------------------------------

 Structure from the checkpoint file:  "/localscratch/chegho/Gau-199227.chk"
 -------------------
 Title Card Required
 -------------------
 Charge =  0 Multiplicity = 1

                          Input orientation:
 ---------------------------------------------------------------------
 Center     Atomic      Atomic             Coordinates (Angstroms)
 Number     Number       Type             X           Y           Z
 ---------------------------------------------------------------------
      1         42           0        2.824734    0.418071    0.224621
      2          6           0        1.407246   -0.929460   -0.321183
      3          8           0        0.620143   -1.714590   -0.606628
      4         16           0        0.839511    1.571888    0.788248
      5          1           0        1.202494    2.406017    1.786192
      6         16           0        3.695786   -1.164422    1.719627
      7          1           0        2.934391   -2.271269    1.568138
      8         16           0        3.217665    0.370403   -2.141937
      9          1           0        3.266709    1.546102    1.536132
     10          1           0        1.986899    0.152147   -2.659243
     11         16           0        5.343324    1.335025    0.028765
     12          1           0        4.184716    1.648315    1.106879
     13          1           0        5.036241    2.389908   -0.754090
 ---------------------------------------------------------------------

 SCF Done:  E(RB3LYP) =  -1777.26019872     A.U. after    1 cycles

 Alpha  occ. eigenvalues --  -88.88717 -88.88444 -88.87556 -88.87500 -19.26856
 Alpha  occ. eigenvalues --  -10.34126  -7.96479  -7.96159  -7.95237  -7.95201
 Alpha  occ. eigenvalues --   -5.92784  -5.92501  -5.92417  -5.92071  -5.91986
 Alpha  occ. eigenvalues --   -5.91844  -5.91511  -5.91464  -5.91148  -5.91047
 Alpha  occ. eigenvalues --   -5.90954  -5.90910  -2.53434  -1.56789  -1.55742
 Alpha  occ. eigenvalues --   -1.54567  -1.17159  -0.75841  -0.73529  -0.72560
 Alpha  occ. eigenvalues --   -0.72281  -0.59904  -0.52894  -0.49400  -0.49080
 Alpha  occ. eigenvalues --   -0.47883  -0.43598  -0.42813  -0.41321  -0.40632
 Alpha  occ. eigenvalues --   -0.34781  -0.33460  -0.32978  -0.31677  -0.30040
 Alpha  occ. eigenvalues --   -0.28368  -0.27592  -0.26042  -0.24553
 Alpha virt. eigenvalues --   -0.14062  -0.11295  -0.08115  -0.04740  -0.03735
 Alpha virt. eigenvalues --   -0.02385   0.00464   0.01205   0.01697   0.02442
 Alpha virt. eigenvalues --    0.05372   0.06620   0.07460   0.09173   0.10064

 Mulliken charges:
               1
     1  Mo  -0.290532
     2  C    0.238500
     3  O   -0.199379
     4  S   -0.080207
     5  H    0.084206
     6  S   -0.057474
     7  H    0.068059
     8  S   -0.074506
     9  H   -0.001390
    10  H    0.071106
    11  S    0.003695
    12  H    0.126649
    13  H    0.111273
 Sum of Mulliken charges =  -0.00000

 Dipole moment (field-independent basis, Debye):
    X=             -1.0388    Y=              0.9905    Z=              0.0837  Tot=              1.4378
 Quadrupole moment (field-independent basis, Debye-Ang):
   XX=           -101.6310   YY=            -83.9269   ZZ=            -91.0888
   XY=              6.1153   XZ=              0.1091   YZ=              1.4406

  Exact polarizability:     162.480       0.955     129.571       4.350      -7.036     141.922
 Approx polarizability:     332.869     -11.402     258.404      24.974     -20.702     298.772

 ******    1 imaginary frequencies (negative Signs) ******

                      1                      2                      3
                      A                      A                      A
 Frequencies --   -584.5695                67.6882                86.7503
 Red. masses --      1.0952                12.2360                10.2566
 Frc consts  --      0.2205                 0.0330                 0.0455
 IR Inten    --    952.8442                 0.7285                 0.8353

                      4                      5                      6
                      A                      A                      A
 Frequencies --     91.0607               104.6069               126.9460
 Red. masses --     14.7662                14.5703                16.0393
 Frc consts  --      0.0721                 0.0939                 0.1523
 IR Inten    --      3.6481                 0.0547                 5.3702

                      7                      8                      9
                      A                      A                      A
 Frequencies --    159.1933               180.5901               225.5737
 Red. masses --     11.1597                11.0793                14.1471
 Frc consts  --      0.1666                 0.2129                 0.4241
 IR Inten    --      0.6522                14.6440                28.4304

                     10                     11                     12
                      A                      A                      A
 Frequencies --    296.0327               324.0463               333.1906
 Red. masses --      1.2324                 4.0723                 1.7729
 Frc consts  --      0.0636                 0.2519                 0.1160
 IR Inten    --      7.3403                 2.1618                 9.8043

                     13                     14                     15
                      A                      A                      A
 Frequencies --    366.1057               369.4074               402.3181
 Red. masses --      4.8676                 4.3972                 1.2419
 Frc consts  --      0.3844                 0.3535                 0.1184
 IR Inten    --     49.0751                22.9181                 4.7933

                     16                     17                     18
                      A                      A                      A
 Frequencies --    420.5683               441.4464               470.1460
 Red. masses --      7.7513                 1.3962                 2.8712
 Frc consts  --      0.8078                 0.1603                 0.3739
 IR Inten    --      5.7641                70.5705                58.7703

                     19                     20                     21
                      A                      A                      A
 Frequencies --    518.0201               614.4595               675.8553
 Red. masses --      3.9505                 1.2564                 1.0402
 Frc consts  --      0.6246                 0.2795                 0.2799
 IR Inten    --      5.2253                19.7779                 0.2197

                     22                     23                     24
                      A                      A                      A
 Frequencies --    761.8498               767.7864               784.9277
 Red. masses --      1.0486                 1.0480                 1.0433
 Frc consts  --      0.3586                 0.3640                 0.3787
 IR Inten    --      6.3552                 5.4542                 6.5627

                     25                     26                     27
                      A                      A                      A
 Frequencies --   1061.8634              1108.3684              1449.0891
 Red. masses --      1.0205                 1.0328                 1.0297
 Frc consts  --      0.6779                 0.7475                 1.2740
 IR Inten    --      0.3070                 2.1807                51.5407

                     28                     29                     30
                      A                      A                      A
 Frequencies --   1686.2477              2114.4461              2642.5276
 Red. masses --      1.0125                13.2023                 1.0393
 Frc consts  --      1.6963                34.7771                 4.2759
 IR Inten    --     25.1287               560.5575                 8.4495

                     31                     32                     33
                      A                      A                      A
 Frequencies --   2645.9149              2661.3895              2687.1534
 Red. masses --      1.0384                 1.0387                 1.0385
 Frc consts  --      4.2830                 4.3347                 4.4180
 IR Inten    --     12.4536                 4.1161                 1.4725

 - Thermochemistry -
 -------------------
 Temperature   298.150 Kelvin.  Pressure   1.00000 Atm.
 Atom     1 has atomic number 42 and mass  97.90550

 Molecular mass:   259.83565 amu.
 Principal axes and moments of inertia in atomic units:
                           1         2         3
     Eigenvalues --  1896.129392567.530922793.66585
           X            0.96742   0.12500  -0.22016
           Y            0.25114  -0.36374   0.89701
           Z           -0.03205   0.92308   0.38328
 This molecule is an asymmetric top.
 Rotational symmetry number  1.
 Warning -- assumption of classical behavior for rotation
           may cause significant error
 Rotational temperatures (Kelvin)      0.04568     0.03373     0.03100
 Rotational constants (GHZ):           0.95180     0.70291     0.64601
    1 imaginary frequencies ignored.
 Zero-point vibrational energy     159375.9 (Joules/Mol)
                                   38.09175 (Kcal/Mol)
 Warning -- explicit consideration of  19 degrees of freedom as
           vibrations may cause significant error
 Vibrational temperatures:     97.39   124.81   131.02   150.51   182.65
          (Kelvin)            229.04   259.83   324.55   425.93   466.23
                              479.39   526.74   531.49   578.85   605.10
                              635.14   676.44   745.32   884.07   972.41
                             1096.13  1104.67  1129.34  1527.78  1594.69
                             2084.92  2426.13  3042.22  3802.01  3806.88
                             3829.15  3866.21

 Zero-point correction=                           0.060703 (Hartree/Particle)
 Thermal correction to Energy=                    0.072802
 Thermal correction to Enthalpy=                  0.073747
 Thermal correction to Gibbs Free Energy=         0.021446
 Sum of electronic and zero-point Energies=          -1777.199496
 Sum of electronic and thermal Energies=             -1777.187396
 Sum of electronic and thermal Enthalpies=           -1777.186452
 Sum of electronic and thermal Free Energies=        -1777.238752

                     E (Thermal)             CV                S
                      KCal/Mol        Cal/Mol-Kelvin    Cal/Mol-Kelvin
 Total                   45.684             40.769            110.075
 Electronic               0.000              0.000              0.000
 Translational            0.889              2.981             42.564
 Rotational               0.889              2.981             30.987
 Vibrational             43.907             34.808             36.524
 Vibration     1          0.598              1.970              4.219
 Vibration     2          0.601              1.958              3.732
 Vibration     3          0.602              1.956              3.637
 Vibration     4          0.605              1.946              3.367
 Vibration     5          0.611              1.926              2.992
 Vibration     6          0.621              1.892              2.559
 Vibration     7          0.630              1.866              2.322
 Vibration     8          0.650              1.802              1.914
 Vibration     9          0.690              1.681              1.439
 Vibration    10          0.709              1.627              1.290
 Vibration    11          0.715              1.609              1.245
 Vibration    12          0.739              1.542              1.096
 Vibration    13          0.742              1.535              1.082
 Vibration    14          0.768              1.465              0.954
 Vibration    15          0.783              1.426              0.890
 Vibration    16          0.801              1.380              0.822
 Vibration    17          0.827              1.316              0.737
 Vibration    18          0.873              1.210              0.615
 Vibration    19          0.974              1.001              0.425

 Optimization completed.
    -- Stationary point found.
 Normal termination of Gaussian 16 at Sat Jun 18 13:10:36 2022.
