 Gaussian 16, Revision C.01,
 Gaussian 16:  ES64L-G16RevC.01  3-Jul-2019

 ---------------------------------------
 # opt freq b3lyp/gen nosymm pseudo=read
 ---------------------------------------

 -------------------
 Title Card Required
 -------------------
 Symbolic Z-matrix:
 Charge =  0 Multiplicity = 1

 SCF Done:  E(RB3LYP) =  -1776.10551726     A.U. after   20 cycles
 SCF Done:  E(RB3LYP) =  -1776.10861461     A.U. after   15 cycles
 SCF Done:  E(RB3LYP) =  -1776.11066052     A.U. after   16 cycles
 SCF Done:  E(RB3LYP) =  -1776.11128483     A.U. after   16 cycles
 SCF Done:  E(RB3LYP) =  -1776.11138012     A.U. after   15 cycles
 SCF Done:  E(RB3LYP) =  -1776.11167629     A.U. after   14 cycles
 SCF Done:  E(RB3LYP) =  -1776.11180724     A.U. after   14 cycles
 SCF Done:  E(RB3LYP) =  -1776.11181516     A.U. after   14 cycles
 SCF Done:  E(RB3LYP) =  -1776.11182585     A.U. after   12 cycles
 SCF Done:  E(RB3LYP) =  -1776.11182706     A.U. after   12 cycles
 SCF Done:  E(RB3LYP) =  -1776.11182736     A.U. after   10 cycles
 SCF Done:  E(RB3LYP) =  -1776.11182748     A.U. after   11 cycles
 SCF Done:  E(RB3LYP) =  -1776.11182754     A.U. after   11 cycles
 SCF Done:  E(RB3LYP) =  -1776.11182757     A.U. after   11 cycles
 Optimization completed.
    -- Stationary point found.
 Normal termination of Gaussian 16 at Fri Mar 11 10:19:17 2022.

 ------------------------------------------------------------------
 #N Geom=AllCheck Guess=TCheck SCRF=Check GenChk RB3LYP/ChkBas Freq
 ------------------------------------------------------------------

 Structure from the checkpoint file:  "/home/chesagar/scratch/Gau-68393.chk"
 -------------------
 Title Card Required
 -------------------
 Charge =  0 Multiplicity = 1

                          Input orientation:
 ---------------------------------------------------------------------
 Center     Atomic      Atomic             Coordinates (Angstroms)
 Number     Number       Type             X           Y           Z
 ---------------------------------------------------------------------
      1         42           0        2.122492    0.561759   -0.298597
      2          6           0        2.405267    0.394130   -2.382843
      3          8           0        2.561046    0.279609   -3.511905
      4         16           0        0.124050   -0.541241   -0.789156
      5          1           0       -0.697845    0.282283   -0.095239
      6         16           0        2.241309    0.918871    2.004966
      7          1           0        2.425432   -0.317580    2.524367
      8         16           0        2.084333    2.858746   -0.650818
      9          1           0        2.085192    3.347463    0.616620
     10         16           0        4.239546   -0.502080   -0.249702
     11          1           0        4.387603   -1.020156   -1.488197
 ---------------------------------------------------------------------

 SCF Done:  E(RB3LYP) =  -1776.11182757     A.U. after    1 cycles

 Alpha  occ. eigenvalues --  -88.88919 -88.88364 -88.87558 -88.87417 -19.26894
 Alpha  occ. eigenvalues --  -10.33757  -7.96787  -7.96101  -7.95281  -7.95197
 Alpha  occ. eigenvalues --   -5.93034  -5.92672  -5.92480  -5.92364  -5.92025
 Alpha  occ. eigenvalues --   -5.91760  -5.91543  -5.91452  -5.91133  -5.91107
 Alpha  occ. eigenvalues --   -5.91022  -5.90884  -2.53994  -1.57721  -1.55803
 Alpha  occ. eigenvalues --   -1.54973  -1.17218  -0.74688  -0.73620  -0.72821
 Alpha  occ. eigenvalues --   -0.71949  -0.59587  -0.49094  -0.49026  -0.48686
 Alpha  occ. eigenvalues --   -0.43909  -0.43481  -0.43115  -0.40145  -0.35312
 Alpha  occ. eigenvalues --   -0.33967  -0.32800  -0.32045  -0.31094  -0.29553
 Alpha  occ. eigenvalues --   -0.27912  -0.26335  -0.24298
 Alpha virt. eigenvalues --   -0.15572  -0.11302  -0.10188  -0.04519  -0.03929
 Alpha virt. eigenvalues --   -0.02622   0.00093   0.01099   0.01723   0.03007
 Alpha virt. eigenvalues --    0.04683   0.05997   0.08107   0.08706   0.17327

 Mulliken charges:
               1
     1  Mo  -0.038359
     2  C    0.235801
     3  O   -0.200181
     4  S   -0.109090
     5  H    0.108476
     6  S   -0.106722
     7  H    0.090017
     8  S   -0.072746
     9  H    0.072319
    10  S   -0.051923
    11  H    0.072406
 Sum of Mulliken charges =  -0.00000

 Dipole moment (field-independent basis, Debye):
    X=             -0.8149    Y=             -1.0130    Z=             -0.0889  Tot=              1.3031
 Quadrupole moment (field-independent basis, Debye-Ang):
   XX=            -90.8243   YY=            -90.3707   ZZ=            -88.3515
   XY=             -5.2736   XZ=             -3.6281   YZ=              1.3835

  Exact polarizability:     138.544      -4.497     136.352       5.528      11.056     151.261
 Approx polarizability:     286.009      -4.893     295.595      25.459      38.353     324.361

                      1                      2                      3
                      A                      A                      A
 Frequencies --     58.4376                71.9798               102.2645
 Red. masses --     11.8578                13.2131                13.4565
 Frc consts  --      0.0239                 0.0403                 0.0829
 IR Inten    --      1.0629                 0.3554                 0.7622

                      4                      5                      6
                      A                      A                      A
 Frequencies --    113.2302               118.8827               145.7428
 Red. masses --      7.1216                13.2232                11.3190
 Frc consts  --      0.0538                 0.1101                 0.1417
 IR Inten    --      1.8463                 0.2697                 0.4848

                      7                      8                      9
                      A                      A                      A
 Frequencies --    160.2973               243.0696               320.0991
 Red. masses --     11.7125                 1.2948                10.6989
 Frc consts  --      0.1773                 0.0451                 0.6459
 IR Inten    --      0.5056                42.6898                11.7823

                     10                     11                     12
                      A                      A                      A
 Frequencies --    347.5607               351.8387               360.5784
 Red. masses --      9.1552                 9.6156                 1.6414
 Frc consts  --      0.6516                 0.7013                 0.1257
 IR Inten    --      7.4556                12.0403                30.4559

                     13                     14                     15
                      A                      A                      A
 Frequencies --    368.9261               381.7254               393.8875
 Red. masses --      2.6926                 6.7373                 1.6501
 Frc consts  --      0.2159                 0.5784                 0.1508
 IR Inten    --     28.3354                22.7729                 2.7311

                     16                     17                     18
                      A                      A                      A
 Frequencies --    405.5552               476.3527               507.4321
 Red. masses --      5.4233                 1.2336                 2.9227
 Frc consts  --      0.5255                 0.1649                 0.4434
 IR Inten    --     13.2917                23.8608                 9.0540

                     19                     20                     21
                      A                      A                      A
 Frequencies --    621.7106               668.7513               776.6754
 Red. masses --      1.0802                 1.1581                 1.0470
 Frc consts  --      0.2460                 0.3052                 0.3721
 IR Inten    --      5.3983                 7.1435                 9.0165

                     22                     23                     24
                      A                      A                      A
 Frequencies --    795.9271              2124.3216              2589.2822
 Red. masses --      1.0507                13.4015                 1.0387
 Frc consts  --      0.3922                35.6323                 4.1028
 IR Inten    --      0.3620               573.4402                 8.7707

                     25                     26                     27
                      A                      A                      A
 Frequencies --   2637.4845              2641.8378              2660.2904
 Red. masses --      1.0379                 1.0384                 1.0387
 Frc consts  --      4.2538                 4.2699                 4.3310
 IR Inten    --      1.5415                 2.5580                 5.6705

 - Thermochemistry -
 -------------------
 Temperature   298.150 Kelvin.  Pressure   1.00000 Atm.
 Atom     1 has atomic number 42 and mass  97.90550

 Molecular mass:   257.82000 amu.
 Principal axes and moments of inertia in atomic units:
                           1         2         3
     Eigenvalues --  1921.522792371.274782525.13963
           X            0.08427   0.95199   0.29432
           Y            0.22828  -0.30596   0.92427
           Z            0.96994  -0.01070  -0.24310
 This molecule is an asymmetric top.
 Rotational symmetry number  1.
 Warning -- assumption of classical behavior for rotation
           may cause significant error
 Rotational temperatures (Kelvin)      0.04508     0.03653     0.03430
 Rotational constants (GHZ):           0.93922     0.76108     0.71471
 Zero-point vibrational energy     122283.1 (Joules/Mol)
                                   29.22637 (Kcal/Mol)
 Warning -- explicit consideration of  18 degrees of freedom as
           vibrations may cause significant error
 Vibrational temperatures:     84.08   103.56   147.14   162.91   171.05
          (Kelvin)            209.69   230.63   349.72   460.55   500.06
                              506.22   518.79   530.80   549.22   566.72
                              583.50   685.37   730.08   894.50   962.18
                             1117.46  1145.16  3056.42  3725.40  3794.75
                             3801.02  3827.56

 Zero-point correction=                           0.046575 (Hartree/Particle)
 Thermal correction to Energy=                    0.058583
 Thermal correction to Enthalpy=                  0.059528
 Thermal correction to Gibbs Free Energy=         0.007200
 Sum of electronic and zero-point Energies=          -1776.065252
 Sum of electronic and thermal Energies=             -1776.053244
 Sum of electronic and thermal Enthalpies=           -1776.052300
 Sum of electronic and thermal Free Energies=        -1776.104627

                     E (Thermal)             CV                S
                      KCal/Mol        Cal/Mol-Kelvin    Cal/Mol-Kelvin
 Total                   36.762             39.393            110.132
 Electronic               0.000              0.000              0.000
 Translational            0.889              2.981             42.541
 Rotational               0.889              2.981             30.821
 Vibrational             34.984             33.431             36.770
 Vibration     1          0.596              1.974              4.509
 Vibration     2          0.598              1.967              4.098
 Vibration     3          0.604              1.947              3.411
 Vibration     4          0.607              1.938              3.213
 Vibration     5          0.609              1.934              3.118
 Vibration     6          0.617              1.907              2.727
 Vibration     7          0.622              1.891              2.546
 Vibration     8          0.659              1.774              1.780
 Vibration     9          0.706              1.635              1.310
 Vibration    10          0.725              1.580              1.177
 Vibration    11          0.728              1.571              1.158
 Vibration    12          0.735              1.553              1.120
 Vibration    13          0.741              1.536              1.084
 Vibration    14          0.751              1.509              1.032
 Vibration    15          0.761              1.483              0.985
 Vibration    16          0.771              1.458              0.942
 Vibration    17          0.833              1.303              0.720
 Vibration    18          0.863              1.234              0.640

 Optimization completed.
    -- Stationary point found.
 Normal termination of Gaussian 16 at Fri Mar 11 10:19:31 2022.
