 Gaussian 16, Revision C.01,
 Gaussian 16:  ES64L-G16RevC.01  3-Jul-2019

 -----------------------------------------------------------
 # opt=(calcfc,ts,noeigen) freq b3lyp/gen nosymm pseudo=read
 -----------------------------------------------------------

 -------------------
 Title Card Required
 -------------------
 Symbolic Z-matrix:
 Charge =  0 Multiplicity = 1

 SCF Done:  E(RB3LYP) =  -1776.08942191     A.U. after   18 cycles
 SCF Done:  E(RB3LYP) =  -1776.08936134     A.U. after   15 cycles
 SCF Done:  E(RB3LYP) =  -1776.08936202     A.U. after   13 cycles
 SCF Done:  E(RB3LYP) =  -1776.08936206     A.U. after   10 cycles
 Optimization completed.
    -- Stationary point found.

 1\1\GINC-NODE13-IB\FTS\RB3LYP\Gen\C1H4Mo1O1S4\CHESAGAR\24-Mar-2022\0\\
 # opt=(calcfc,ts,noeigen) freq b3lyp/gen nosymm pseudo=read\\Title Car
 d Required\\0,1\Mo,2.1982723925,0.5406396204,0.1625839715\C,2.48901175
 43,0.4172795848,-3.2120838793\O,2.0798759146,0.6092759035,-4.254154439
 \S,0.4332423061,-0.7522886554,-0.5678658631\H,-0.6166351824,0.07920986
 67,-0.3570395964\S,1.9597502054,0.8985621014,2.3814408817\H,2.27978966
 28,-0.2879066733,2.9647566985\S,2.1315504243,2.6989861233,-0.627384171
 2\H,2.5280522388,3.4495864068,0.4311473213\S,4.2560925765,-0.485203327

 Normal termination of Gaussian 16 at Thu Mar 24 11:26:40 2022.

 ------------------------------------------------------------------
 #N Geom=AllCheck Guess=TCheck SCRF=Check GenChk RB3LYP/ChkBas Freq
 ------------------------------------------------------------------

 Structure from the checkpoint file:  "/home/chesagar/scratch/Gau-171924.chk"
 -------------------
 Title Card Required
 -------------------
 Charge =  0 Multiplicity = 1

                          Input orientation:
 ---------------------------------------------------------------------
 Center     Atomic      Atomic             Coordinates (Angstroms)
 Number     Number       Type             X           Y           Z
 ---------------------------------------------------------------------
      1         42           0        2.198272    0.540640    0.162584
      2          6           0        2.489012    0.417280   -3.212084
      3          8           0        2.079876    0.609276   -4.254154
      4         16           0        0.433242   -0.752289   -0.567866
      5          1           0       -0.616635    0.079210   -0.357040
      6         16           0        1.959750    0.898562    2.381441
      7          1           0        2.279790   -0.287907    2.964757
      8         16           0        2.131550    2.698986   -0.627384
      9          1           0        2.528052    3.449586    0.431147
     10         16           0        4.256093   -0.485203    0.022463
     11          1           0        4.239421   -0.906338   -1.264368
 ---------------------------------------------------------------------

 SCF Done:  E(RB3LYP) =  -1776.08936206     A.U. after    1 cycles

 Alpha  occ. eigenvalues --  -88.88136 -88.87541 -88.87357 -88.87210 -19.26849
 Alpha  occ. eigenvalues --  -10.31900  -7.95970  -7.95461  -7.95237  -7.95046
 Alpha  occ. eigenvalues --   -5.92213  -5.91817  -5.91719  -5.91714  -5.91496
 Alpha  occ. eigenvalues --   -5.91347  -5.91309  -5.91135  -5.91114  -5.90924
 Alpha  occ. eigenvalues --   -5.90903  -5.90763  -2.52334  -1.56557  -1.54034
 Alpha  occ. eigenvalues --   -1.53276  -1.17249  -0.73826  -0.72885  -0.72611
 Alpha  occ. eigenvalues --   -0.72271  -0.58273  -0.48159  -0.48089  -0.43864
 Alpha  occ. eigenvalues --   -0.43133  -0.42657  -0.42240  -0.39166  -0.34184
 Alpha  occ. eigenvalues --   -0.33460  -0.33015  -0.32731  -0.32145  -0.29585
 Alpha  occ. eigenvalues --   -0.27440  -0.26570  -0.21977
 Alpha virt. eigenvalues --   -0.13067  -0.10403  -0.09694  -0.06957  -0.04059
 Alpha virt. eigenvalues --   -0.03558  -0.00127   0.01120   0.01832   0.02659
 Alpha virt. eigenvalues --    0.05551   0.06500   0.07779   0.08860   0.16230

 Mulliken charges:
               1
     1  Mo   0.160051
     2  C    0.235983
     3  O   -0.153644
     4  S   -0.171130
     5  H    0.096484
     6  S   -0.115860
     7  H    0.083391
     8  S   -0.160133
     9  H    0.086046
    10  S   -0.144616
    11  H    0.083429
 Sum of Mulliken charges =  -0.00000

 Dipole moment (field-independent basis, Debye):
    X=             -0.2614    Y=             -0.2918    Z=             -0.3336  Tot=              0.5145
 Quadrupole moment (field-independent basis, Debye-Ang):
   XX=            -89.1228   YY=            -88.8530   ZZ=            -85.4695
   XY=             -1.7419   XZ=             -2.6781   YZ=              1.3733

  Exact polarizability:     128.945      -4.918     137.303       6.802       5.186     144.189
 Approx polarizability:     250.668     -15.093     283.909      22.588      18.521     270.453

 ******    1 imaginary frequencies (negative Signs) ******

                      1                      2                      3
                      A                      A                      A
 Frequencies --    -71.6342                30.3713                36.2369
 Red. masses --      8.9479                14.2443                14.7691
 Frc consts  --      0.0271                 0.0077                 0.0114
 IR Inten    --      2.3720                 0.0380                 0.0779

                      4                      5                      6
                      A                      A                      A
 Frequencies --     77.2078                90.2188               106.1856
 Red. masses --     11.5485                10.3215                 9.8493
 Frc consts  --      0.0406                 0.0495                 0.0654
 IR Inten    --      0.5746                 1.0088                 0.9678

                      7                      8                      9
                      A                      A                      A
 Frequencies --    112.9465               122.3858               129.9754
 Red. masses --      8.4748                10.7552                 8.9453
 Frc consts  --      0.0637                 0.0949                 0.0890
 IR Inten    --      2.2611                 0.4251                 2.3479

                     10                     11                     12
                      A                      A                      A
 Frequencies --    155.0727               226.2843               334.5533
 Red. masses --     12.5561                 1.3309                 1.1647
 Frc consts  --      0.1779                 0.0402                 0.0768
 IR Inten    --      0.6557                62.8484                 4.0263

                     13                     14                     15
                      A                      A                      A
 Frequencies --    355.0242               383.8349               389.0583
 Red. masses --     10.3366                 5.4563                 3.7020
 Frc consts  --      0.7676                 0.4736                 0.3302
 IR Inten    --      8.4566                44.8379                25.2180

                     16                     17                     18
                      A                      A                      A
 Frequencies --    406.1049               411.9838               430.6176
 Red. masses --      7.4043                 1.3249                 1.3341
 Frc consts  --      0.7195                 0.1325                 0.1458
 IR Inten    --     17.2364                24.1497                10.0231

                     19                     20                     21
                      A                      A                      A
 Frequencies --    636.3002               661.3985               696.1833
 Red. masses --      1.0753                 1.0827                 1.0568
 Frc consts  --      0.2565                 0.2791                 0.3018
 IR Inten    --      1.6899                 1.7488                 0.0917

                     22                     23                     24
                      A                      A                      A
 Frequencies --    725.9843              2222.4475              2571.1639
 Red. masses --      1.0680                13.4319                 1.0386
 Frc consts  --      0.3317                39.0887                 4.0453
 IR Inten    --      1.6953               108.6775                15.1399

                     25                     26                     27
                      A                      A                      A
 Frequencies --   2600.5017              2620.4950              2633.7293
 Red. masses --      1.0386                 1.0381                 1.0383
 Frc consts  --      4.1382                 4.2000                 4.2433
 IR Inten    --      9.5144                 1.8182                 5.1677

 - Thermochemistry -
 -------------------
 Temperature   298.150 Kelvin.  Pressure   1.00000 Atm.
 Atom     1 has atomic number 42 and mass  97.90550

 Molecular mass:   257.82000 amu.
 Principal axes and moments of inertia in atomic units:
                           1         2         3
     Eigenvalues --  1791.439333103.124303128.74497
           X            0.03347  -0.62828   0.77727
           Y            0.02339   0.77798   0.62785
           Z            0.99917   0.00283  -0.04074
 This molecule is an asymmetric top.
 Rotational symmetry number  1.
 Warning -- assumption of classical behavior for rotation
           may cause significant error
 Rotational temperatures (Kelvin)      0.04835     0.02791     0.02768
 Rotational constants (GHZ):           1.00743     0.58159     0.57683
    1 imaginary frequencies ignored.
 Zero-point vibrational energy     114639.7 (Joules/Mol)
                                   27.39955 (Kcal/Mol)
 Warning -- explicit consideration of  17 degrees of freedom as
           vibrations may cause significant error
 Vibrational temperatures:     43.70    52.14   111.08   129.80   152.78
          (Kelvin)            162.50   176.09   187.01   223.12   325.57
                              481.35   510.80   552.25   559.77   584.29
                              592.75   619.56   915.49   951.60  1001.65
                             1044.53  3197.61  3699.33  3741.54  3770.31
                             3789.35

 Zero-point correction=                           0.043664 (Hartree/Particle)
 Thermal correction to Energy=                    0.056479
 Thermal correction to Enthalpy=                  0.057423
 Thermal correction to Gibbs Free Energy=         0.001267
 Sum of electronic and zero-point Energies=          -1776.045698
 Sum of electronic and thermal Energies=             -1776.032883
 Sum of electronic and thermal Enthalpies=           -1776.031939
 Sum of electronic and thermal Free Energies=        -1776.088095

                     E (Thermal)             CV                S
                      KCal/Mol        Cal/Mol-Kelvin    Cal/Mol-Kelvin
 Total                   35.441             39.244            118.191
 Electronic               0.000              0.000              0.000
 Translational            0.889              2.981             42.541
 Rotational               0.889              2.981             31.231
 Vibrational             33.664             33.282             44.418
 Vibration     1          0.594              1.984              5.805
 Vibration     2          0.594              1.982              5.455
 Vibration     3          0.599              1.964              3.961
 Vibration     4          0.602              1.956              3.655
 Vibration     5          0.605              1.944              3.337
 Vibration     6          0.607              1.939              3.218
 Vibration     7          0.610              1.930              3.062
 Vibration     8          0.612              1.923              2.946
 Vibration     9          0.620              1.897              2.609
 Vibration    10          0.650              1.801              1.908
 Vibration    11          0.716              1.606              1.238
 Vibration    12          0.731              1.565              1.144
 Vibration    13          0.753              1.505              1.024
 Vibration    14          0.757              1.494              1.004
 Vibration    15          0.771              1.457              0.940
 Vibration    16          0.776              1.444              0.920
 Vibration    17          0.792              1.404              0.857

 Optimization completed.
    -- Stationary point found.
 Normal termination of Gaussian 16 at Thu Mar 24 11:26:54 2022.
