 Gaussian 16, Revision C.01,
 Gaussian 16:  ES64L-G16RevC.01  3-Jul-2019

 ---------------------------------------
 # opt freq b3lyp/gen nosymm pseudo=read
 ---------------------------------------

 -------------------
 Title Card Required
 -------------------
 Symbolic Z-matrix:
 Charge =  0 Multiplicity = 1

 SCF Done:  E(RB3LYP) =  -1662.78052400     A.U. after   15 cycles
 SCF Done:  E(RB3LYP) =  -1662.78033313     A.U. after   14 cycles
 SCF Done:  E(RB3LYP) =  -1662.78064101     A.U. after   14 cycles
 SCF Done:  E(RB3LYP) =  -1662.78069424     A.U. after   14 cycles
 SCF Done:  E(RB3LYP) =  -1662.78075764     A.U. after   14 cycles
 SCF Done:  E(RB3LYP) =  -1662.78076801     A.U. after   13 cycles
 SCF Done:  E(RB3LYP) =  -1662.78076666     A.U. after   12 cycles
 SCF Done:  E(RB3LYP) =  -1662.78077820     A.U. after   12 cycles
 SCF Done:  E(RB3LYP) =  -1662.78077876     A.U. after   10 cycles
 Optimization completed.
    -- Stationary point found.
 Normal termination of Gaussian 16 at Tue Mar 15 14:02:40 2022.

 ------------------------------------------------------------------
 #N Geom=AllCheck Guess=TCheck SCRF=Check GenChk RB3LYP/ChkBas Freq
 ------------------------------------------------------------------

 Structure from the checkpoint file:  "/localscratch/chesayan/sagar/Gau-60525.chk"
 -------------------
 Title Card Required
 -------------------
 Charge =  0 Multiplicity = 1

                          Input orientation:
 ---------------------------------------------------------------------
 Center     Atomic      Atomic             Coordinates (Angstroms)
 Number     Number       Type             X           Y           Z
 ---------------------------------------------------------------------
      1         42           0        2.145919    0.607637    0.377651
      2         16           0        0.522535   -0.701917   -0.556883
      3          1           0       -0.558388    0.119369   -0.585986
      4         16           0        1.905147    0.805141    2.641806
      5          1           0        2.374812   -0.380717    3.107560
      6         16           0        1.985839    2.696463   -0.536211
      7          1           0        2.707395    3.464313    0.320205
      8         16           0        4.170787   -0.367321   -0.037993
      9          1           0        4.059889   -0.770675   -1.329808
 ---------------------------------------------------------------------

 SCF Done:  E(RB3LYP) =  -1662.78077876     A.U. after    1 cycles

 Alpha  occ. eigenvalues --  -88.87897 -88.87897 -88.87896 -88.87896  -7.95780
 Alpha  occ. eigenvalues --   -7.95780  -7.95779  -7.95778  -5.92033  -5.92032
 Alpha  occ. eigenvalues --   -5.92032  -5.92031  -5.91651  -5.91651  -5.91648
 Alpha  occ. eigenvalues --   -5.91647  -5.91481  -5.91479  -5.91479  -5.91478
 Alpha  occ. eigenvalues --   -2.52455  -1.56759  -1.53787  -1.53786  -0.74035
 Alpha  occ. eigenvalues --   -0.72939  -0.72939  -0.72891  -0.44045  -0.42861
 Alpha  occ. eigenvalues --   -0.42860  -0.42670  -0.33785  -0.33767  -0.33624
 Alpha  occ. eigenvalues --   -0.33621  -0.32565  -0.30062  -0.27382  -0.27381
 Alpha  occ. eigenvalues --   -0.22123
 Alpha virt. eigenvalues --   -0.13080  -0.10311  -0.10308  -0.06938  -0.00904
 Alpha virt. eigenvalues --    0.00820   0.00821   0.01316   0.05701   0.05701
 Alpha virt. eigenvalues --    0.07537   0.08549   0.17073   0.17637   0.17642

 Mulliken charges:
               1
     1  Mo   0.242703
     2  S   -0.149901
     3  H    0.089148
     4  S   -0.149803
     5  H    0.089100
     6  S   -0.149728
     7  H    0.089150
     8  S   -0.149819
     9  H    0.089150
 Sum of Mulliken charges =  -0.00000

 Dipole moment (field-independent basis, Debye):
    X=              0.0001    Y=             -0.0008    Z=              0.0004  Tot=              0.0009
 Quadrupole moment (field-independent basis, Debye-Ang):
   XX=            -77.1745   YY=            -76.8748   ZZ=            -76.9369
   XY=             -0.2868   XZ=              0.3409   YZ=              0.2027

  Exact polarizability:     121.157      -6.153     127.793       7.365       4.413     126.224
 Approx polarizability:     236.323     -20.002     257.904      23.929      14.329     252.794

                      1                      2                      3
                      A                      A                      A
 Frequencies --     90.1517                90.5777                96.3805
 Red. masses --     10.5422                10.6215                 8.7123
 Frc consts  --      0.0505                 0.0513                 0.0477
 IR Inten    --      0.0092                 0.0095                 3.2795

                      4                      5                      6
                      A                      A                      A
 Frequencies --    110.9188               120.8361               242.7877
 Red. masses --      9.5800                 6.8224                 1.3633
 Frc consts  --      0.0694                 0.0587                 0.0473
 IR Inten    --      0.0003                 4.2834                74.5416

                      7                      8                      9
                      A                      A                      A
 Frequencies --    337.0079               365.9543               389.4455
 Red. masses --      1.2418                 6.0613                 4.3298
 Frc consts  --      0.0831                 0.4783                 0.3869
 IR Inten    --      0.0477                 0.0050                39.5480

                     10                     11                     12
                      A                      A                      A
 Frequencies --    389.5793               414.9309               423.8785
 Red. masses --      4.5163                 6.7859                 1.3271
 Frc consts  --      0.4039                 0.6883                 0.1405
 IR Inten    --     39.9096                 3.5704                16.4107

                     13                     14                     15
                      A                      A                      A
 Frequencies --    425.5275               665.6695               667.8258
 Red. masses --      1.3103                 1.0463                 1.0866
 Frc consts  --      0.1398                 0.2732                 0.2855
 IR Inten    --     16.0052                 0.0238                 2.4180

                     16                     17                     18
                      A                      A                      A
 Frequencies --    669.2035               708.4782              2594.5504
 Red. masses --      1.0863                 1.0666                 1.0390
 Frc consts  --      0.2866                 0.3154                 4.1209
 IR Inten    --      2.4463                 1.3247                 5.9192

                     19                     20                     21
                      A                      A                      A
 Frequencies --   2595.5592              2596.2675              2600.6787
 Red. masses --      1.0383                 1.0382                 1.0382
 Frc consts  --      4.1213                 4.1233                 4.1371
 IR Inten    --     10.4993                10.8153                 0.0425

 - Thermochemistry -
 -------------------
 Temperature   298.150 Kelvin.  Pressure   1.00000 Atm.
 Atom     1 has atomic number 42 and mass  97.90550

 Molecular mass:   229.82509 amu.
 Principal axes and moments of inertia in atomic units:
                           1         2         3
     Eigenvalues --  1644.248941644.715381726.39664
           X            0.13759   0.66894   0.73047
           Y            0.65777  -0.61310   0.43756
           Z            0.74055   0.42028  -0.52436
 This molecule is an asymmetric top.
 Rotational symmetry number  1.
 Warning -- assumption of classical behavior for rotation
           may cause significant error
 Rotational temperatures (Kelvin)      0.05268     0.05266     0.05017
 Rotational constants (GHZ):           1.09761     1.09730     1.04538
 Zero-point vibrational energy      99267.4 (Joules/Mol)
                                   23.72547 (Kcal/Mol)
 Warning -- explicit consideration of  13 degrees of freedom as
           vibrations may cause significant error
 Vibrational temperatures:    129.71   130.32   138.67   159.59   173.86
          (Kelvin)            349.32   484.88   526.53   560.33   560.52
                              596.99   609.87   612.24   957.75   960.85
                              962.83  1019.34  3732.98  3734.43  3735.45
                             3741.80

 Zero-point correction=                           0.037809 (Hartree/Particle)
 Thermal correction to Energy=                    0.047511
 Thermal correction to Enthalpy=                  0.048455
 Thermal correction to Gibbs Free Energy=         0.001226
 Sum of electronic and zero-point Energies=          -1662.742970
 Sum of electronic and thermal Energies=             -1662.733268
 Sum of electronic and thermal Enthalpies=           -1662.732324
 Sum of electronic and thermal Free Energies=        -1662.779553

                     E (Thermal)             CV                S
                      KCal/Mol        Cal/Mol-Kelvin    Cal/Mol-Kelvin
 Total                   29.814             31.368             99.402
 Electronic               0.000              0.000              0.000
 Translational            0.889              2.981             42.198
 Rotational               0.889              2.981             29.925
 Vibrational             28.036             25.406             27.279
 Vibration     1          0.602              1.956              3.657
 Vibration     2          0.602              1.956              3.648
 Vibration     3          0.603              1.952              3.526
 Vibration     4          0.607              1.940              3.253
 Vibration     5          0.609              1.932              3.087
 Vibration     6          0.659              1.775              1.782
 Vibration     7          0.718              1.602              1.226
 Vibration     8          0.739              1.542              1.097
 Vibration     9          0.757              1.493              1.002
 Vibration    10          0.758              1.492              1.002
 Vibration    11          0.778              1.438              0.909
 Vibration    12          0.786              1.418              0.879
 Vibration    13          0.787              1.415              0.873

 Optimization completed.
    -- Stationary point found.
 Normal termination of Gaussian 16 at Tue Mar 15 14:02:51 2022.
