 Gaussian 16, Revision C.01,
 Gaussian 16:  ES64L-G16RevC.01  3-Jul-2019

 -----------------------------------------------------------
 # opt=(calcfc,ts,noeigen) freq b3lyp/gen nosymm pseudo=read
 -----------------------------------------------------------

 -------------------
 Title Card Required
 -------------------
 Symbolic Z-matrix:
 Charge =  0 Multiplicity = 1

 SCF Done:  E(RB3LYP) =  -1662.73783353     A.U. after   17 cycles
 SCF Done:  E(RB3LYP) =  -1662.74220215     A.U. after   15 cycles
 SCF Done:  E(RB3LYP) =  -1662.74495679     A.U. after   15 cycles
 SCF Done:  E(RB3LYP) =  -1662.74631226     A.U. after   15 cycles
 SCF Done:  E(RB3LYP) =  -1662.74581206     A.U. after   16 cycles
 SCF Done:  E(RB3LYP) =  -1662.74617602     A.U. after   15 cycles
 SCF Done:  E(RB3LYP) =  -1662.74615295     A.U. after   15 cycles
 SCF Done:  E(RB3LYP) =  -1662.74616220     A.U. after   13 cycles
 SCF Done:  E(RB3LYP) =  -1662.74616262     A.U. after   12 cycles
 SCF Done:  E(RB3LYP) =  -1662.74616302     A.U. after   12 cycles
 Optimization completed.
    -- Stationary point found.
 Normal termination of Gaussian 16 at Fri Jul  7 10:55:40 2023.

 ------------------------------------------------------------------
 #N Geom=AllCheck Guess=TCheck SCRF=Check GenChk RB3LYP/ChkBas Freq
 ------------------------------------------------------------------

 Structure from the checkpoint file:  "/localscratch/chegho/Gau-86245.chk"
 -------------------
 Title Card Required
 -------------------
 Charge =  0 Multiplicity = 1

                          Input orientation:
 ---------------------------------------------------------------------
 Center     Atomic      Atomic             Coordinates (Angstroms)
 Number     Number       Type             X           Y           Z
 ---------------------------------------------------------------------
      1         42           0        1.836926    0.401105    0.309890
      2         16           0        0.315076   -1.143720   -0.018157
      3          1           0        0.490859    0.487055   -0.729851
      4         16           0        1.742709    0.904893    2.578625
      5          1           0        2.217964   -0.265480    3.060810
      6         16           0        1.884332    2.612149   -0.416431
      7          1           0        2.921752    3.111358    0.300445
      8         16           0        3.910470   -0.505441   -0.192944
      9          1           0        3.993848   -0.129628   -1.492045
 ---------------------------------------------------------------------

 SCF Done:  E(RB3LYP) =  -1662.74616302     A.U. after    1 cycles

 Alpha  occ. eigenvalues --  -88.88814 -88.88432 -88.88389 -88.88125  -7.96639
 Alpha  occ. eigenvalues --   -7.96282  -7.96280  -7.95950  -5.92884  -5.92542
 Alpha  occ. eigenvalues --   -5.92538  -5.92451  -5.92412  -5.92222  -5.92214
 Alpha  occ. eigenvalues --   -5.92209  -5.91913  -5.91911  -5.91810  -5.91630
 Alpha  occ. eigenvalues --   -2.55384  -1.58534  -1.57877  -1.56652  -0.74664
 Alpha  occ. eigenvalues --   -0.73681  -0.73482  -0.70490  -0.45173  -0.43703
 Alpha  occ. eigenvalues --   -0.43431  -0.42035  -0.36818  -0.35585  -0.34200
 Alpha  occ. eigenvalues --   -0.33489  -0.31438  -0.30174  -0.29208  -0.26497
 Alpha  occ. eigenvalues --   -0.24312
 Alpha virt. eigenvalues --   -0.14403  -0.11881  -0.10965  -0.10623  -0.01748
 Alpha virt. eigenvalues --   -0.00531   0.00637   0.00999   0.04643   0.05747
 Alpha virt. eigenvalues --    0.06781   0.08313   0.15212   0.17806   0.19498

 Mulliken charges:
               1
     1  Mo   0.184117
     2  S   -0.186973
     3  H    0.022807
     4  S   -0.083195
     5  H    0.099704
     6  S   -0.105149
     7  H    0.095235
     8  S   -0.122925
     9  H    0.096379
 Sum of Mulliken charges =  -0.00000

 Dipole moment (field-independent basis, Debye):
    X=              1.4204    Y=              0.4689    Z=             -0.3177  Tot=              1.5292
 Quadrupole moment (field-independent basis, Debye-Ang):
   XX=            -74.5138   YY=            -79.2636   ZZ=            -74.6569
   XY=              2.8850   XZ=             -0.9328   YZ=             -1.4847

  Exact polarizability:     124.528      10.835     135.327      -2.245       3.705     117.716
 Approx polarizability:     305.633      59.993     306.307      17.473      19.843     240.056

 ******    1 imaginary frequencies (negative Signs) ******

                      1                      2                      3
                      A                      A                      A
 Frequencies --   -606.5687                66.0703               112.7200
 Red. masses --      1.1578                 7.6731                10.6891
 Frc consts  --      0.2510                 0.0197                 0.0800
 IR Inten    --     99.3880                 1.0438                 0.7622

                      4                      5                      6
                      A                      A                      A
 Frequencies --    133.5256               144.9279               187.0581
 Red. masses --      9.2706                18.3619                 9.9553
 Frc consts  --      0.0974                 0.2272                 0.2052
 IR Inten    --      0.5586                 0.6163                 6.5540

                      7                      8                      9
                      A                      A                      A
 Frequencies --    247.0623               326.0807               367.4302
 Red. masses --      1.1235                 1.2067                 8.5852
 Frc consts  --      0.0404                 0.0756                 0.6829
 IR Inten    --     14.3512                15.3564                12.0167

                     10                     11                     12
                      A                      A                      A
 Frequencies --    368.7566               382.6695               422.5283
 Red. masses --      5.6387                13.7518                 1.2319
 Frc consts  --      0.4518                 1.1865                 0.1296
 IR Inten    --     24.9886                34.0368                35.7764

                     13                     14                     15
                      A                      A                      A
 Frequencies --    515.5426               620.9443               675.4207
 Red. masses --     10.0881                 1.0502                 1.0692
 Frc consts  --      1.5798                 0.2386                 0.2874
 IR Inten    --    113.7151                 5.1749                 2.0463

                     16                     17                     18
                      A                      A                      A
 Frequencies --    680.8620               774.2797              1793.8593
 Red. masses --      1.0864                 1.0404                 1.0192
 Frc consts  --      0.2967                 0.3675                 1.9323
 IR Inten    --     10.5164                 2.5400                 2.8113

                     19                     20                     21
                      A                      A                      A
 Frequencies --   2622.7372              2633.3939              2657.1330
 Red. masses --      1.0382                 1.0380                 1.0385
 Frc consts  --      4.2075                 4.2413                 4.3201
 IR Inten    --      1.5266                 1.1048                 1.7195

 - Thermochemistry -
 -------------------
 Temperature   298.150 Kelvin.  Pressure   1.00000 Atm.
 Atom     1 has atomic number 42 and mass  97.90550

 Molecular mass:   229.82509 amu.
 Principal axes and moments of inertia in atomic units:
                           1         2         3
     Eigenvalues --  1483.600631629.234131855.58241
           X            0.23303   0.75936   0.60751
           Y            0.96840  -0.12414  -0.21629
           Z            0.08882  -0.63872   0.76430
 This molecule is an asymmetric top.
 Rotational symmetry number  1.
 Warning -- assumption of classical behavior for rotation
           may cause significant error
 Rotational temperatures (Kelvin)      0.05838     0.05316     0.04668
 Rotational constants (GHZ):           1.21646     1.10772     0.97260
    1 imaginary frequencies ignored.
 Zero-point vibrational energy      94104.3 (Joules/Mol)
                                   22.49146 (Kcal/Mol)
 Warning -- explicit consideration of  12 degrees of freedom as
           vibrations may cause significant error
 Vibrational temperatures:     95.06   162.18   192.11   208.52   269.13
          (Kelvin)            355.47   469.16   528.65   530.56   550.58
                              607.92   741.75   893.40   971.78   979.61
                             1114.02  2580.96  3773.53  3788.87  3823.02

 Zero-point correction=                           0.035842 (Hartree/Particle)
 Thermal correction to Energy=                    0.044963
 Thermal correction to Enthalpy=                  0.045907
 Thermal correction to Gibbs Free Energy=         0.000051
 Sum of electronic and zero-point Energies=          -1662.710321
 Sum of electronic and thermal Energies=             -1662.701200
 Sum of electronic and thermal Enthalpies=           -1662.700256
 Sum of electronic and thermal Free Energies=        -1662.746112

                     E (Thermal)             CV                S
                      KCal/Mol        Cal/Mol-Kelvin    Cal/Mol-Kelvin
 Total                   28.215             29.621             96.514
 Electronic               0.000              0.000              0.000
 Translational            0.889              2.981             42.198
 Rotational               0.889              2.981             29.885
 Vibrational             26.437             23.659             24.431
 Vibration     1          0.597              1.970              4.267
 Vibration     2          0.607              1.939              3.222
 Vibration     3          0.613              1.920              2.895
 Vibration     4          0.616              1.908              2.738
 Vibration     5          0.632              1.858              2.257
 Vibration     6          0.661              1.768              1.751
 Vibration     7          0.710              1.623              1.279
 Vibration     8          0.740              1.539              1.090
 Vibration     9          0.741              1.536              1.085
 Vibration    10          0.752              1.507              1.029
 Vibration    11          0.785              1.421              0.883
 Vibration    12          0.871              1.216              0.620

 Optimization completed.
    -- Stationary point found.
 Normal termination of Gaussian 16 at Fri Jul  7 10:55:51 2023.
