 Gaussian 16, Revision C.01,
 Gaussian 16:  ES64L-G16RevC.01  3-Jul-2019

 ---------------------------------------
 # opt freq b3lyp/gen nosymm pseudo=read
 ---------------------------------------

 -------------------
 Title Card Required
 -------------------
 Symbolic Z-matrix:
 Charge =  0 Multiplicity = 1

 SCF Done:  E(RB3LYP) =  -1662.76059424     A.U. after   16 cycles
 SCF Done:  E(RB3LYP) =  -1662.76751919     A.U. after   13 cycles
 SCF Done:  E(RB3LYP) =  -1662.76777083     A.U. after   12 cycles
 SCF Done:  E(RB3LYP) =  -1662.76768612     A.U. after   12 cycles
 SCF Done:  E(RB3LYP) =  -1662.76780255     A.U. after   12 cycles
 SCF Done:  E(RB3LYP) =  -1662.76781737     A.U. after   11 cycles
 SCF Done:  E(RB3LYP) =  -1662.76782002     A.U. after   11 cycles
 SCF Done:  E(RB3LYP) =  -1662.76782166     A.U. after   11 cycles
 SCF Done:  E(RB3LYP) =  -1662.76782332     A.U. after   10 cycles
 SCF Done:  E(RB3LYP) =  -1662.76782615     A.U. after   11 cycles
 SCF Done:  E(RB3LYP) =  -1662.76782742     A.U. after   11 cycles
 SCF Done:  E(RB3LYP) =  -1662.76782840     A.U. after   11 cycles
 SCF Done:  E(RB3LYP) =  -1662.76782864     A.U. after    9 cycles
 Optimization completed.
    -- Stationary point found.
 Normal termination of Gaussian 16 at Sat Jul  8 07:40:25 2023.

 ------------------------------------------------------------------
 #N Geom=AllCheck Guess=TCheck SCRF=Check GenChk RB3LYP/ChkBas Freq
 ------------------------------------------------------------------

 Structure from the checkpoint file:  "/localscratch/chegho/Gau-204288.chk"
 -------------------
 Title Card Required
 -------------------
 Charge =  0 Multiplicity = 1

                          Input orientation:
 ---------------------------------------------------------------------
 Center     Atomic      Atomic             Coordinates (Angstroms)
 Number     Number       Type             X           Y           Z
 ---------------------------------------------------------------------
      1         42           0        1.851234    0.270333    0.220505
      2         16           0        0.030652   -0.753470    0.418740
      3          1           0        1.823598    0.723472   -1.383933
      4         16           0        2.666827    1.136075    2.265841
      5          1           0        2.420647   -0.004813    2.952457
      6         16           0        1.451992    2.582307   -0.299898
      7          1           0        1.364481    3.121314    0.939766
      8         16           0        3.370796   -1.244278   -0.684677
      9          1           0        4.333709   -0.358646   -1.028462
 ---------------------------------------------------------------------

 SCF Done:  E(RB3LYP) =  -1662.76782864     A.U. after    1 cycles

 Alpha  occ. eigenvalues --  -88.89620 -88.88797 -88.88209 -88.87742  -7.97496
 Alpha  occ. eigenvalues --   -7.96856  -7.96060  -7.95436  -5.93728  -5.93409
 Alpha  occ. eigenvalues --   -5.93168  -5.92864  -5.92754  -5.92718  -5.92326
 Alpha  occ. eigenvalues --   -5.91954  -5.91725  -5.91723  -5.91354  -5.91079
 Alpha  occ. eigenvalues --   -2.56663  -1.59607  -1.58649  -1.58389  -0.75210
 Alpha  occ. eigenvalues --   -0.74098  -0.72294  -0.70335  -0.45462  -0.44742
 Alpha  occ. eigenvalues --   -0.42958  -0.37928  -0.36716  -0.36083  -0.35320
 Alpha  occ. eigenvalues --   -0.33497  -0.31817  -0.30733  -0.30289  -0.27221
 Alpha  occ. eigenvalues --   -0.26660
 Alpha virt. eigenvalues --   -0.15047  -0.12760  -0.11279  -0.09738  -0.03886
 Alpha virt. eigenvalues --   -0.00498   0.00477   0.02212   0.03753   0.05769
 Alpha virt. eigenvalues --    0.06255   0.08234   0.16517   0.18396   0.21043

 Mulliken charges:
               1
     1  Mo   0.122528
     2  S   -0.204746
     3  H    0.038088
     4  S   -0.101555
     5  H    0.096120
     6  S   -0.035995
     7  H    0.078054
     8  S   -0.101288
     9  H    0.108795
 Sum of Mulliken charges =  -0.00000

 Dipole moment (field-independent basis, Debye):
    X=              1.0705    Y=             -0.7258    Z=              0.8478  Tot=              1.5465
 Quadrupole moment (field-independent basis, Debye-Ang):
   XX=            -72.7469   YY=            -80.5900   ZZ=            -76.5471
   XY=             -1.0493   XZ=             -1.0961   YZ=             -0.4402

  Exact polarizability:     119.267      -0.655     143.005      -4.296      13.989     113.894
 Approx polarizability:     283.495      35.192     341.081     -20.867      41.027     239.339

                      1                      2                      3
                      A                      A                      A
 Frequencies --     60.3299               112.7480               131.9919
 Red. masses --      4.7410                 5.9763                13.7431
 Frc consts  --      0.0102                 0.0448                 0.1411
 IR Inten    --      2.6778                 5.6551                 4.7238

                      4                      5                      6
                      A                      A                      A
 Frequencies --    143.0724               153.9367               283.0508
 Red. masses --     17.0070                20.8299                 1.4643
 Frc consts  --      0.2051                 0.2908                 0.0691
 IR Inten    --      0.1880                 0.8879                17.2113

                      7                      8                      9
                      A                      A                      A
 Frequencies --    320.8142               326.6857               350.6150
 Red. masses --      1.5298                 4.0214                 2.2331
 Frc consts  --      0.0928                 0.2529                 0.1617
 IR Inten    --     30.2426                15.9764                37.6297

                     10                     11                     12
                      A                      A                      A
 Frequencies --    361.6033               402.7376               558.6339
 Red. masses --      2.3140                 3.4100                 2.4653
 Frc consts  --      0.1783                 0.3259                 0.4533
 IR Inten    --     12.7525                17.1874                88.8881

                     13                     14                     15
                      A                      A                      A
 Frequencies --    603.7733               641.0983               684.1780
 Red. masses --      1.2997                 1.1033                 1.2680
 Frc consts  --      0.2792                 0.2672                 0.3497
 IR Inten    --      6.1976                 2.5162                 3.1685

                     16                     17                     18
                      A                      A                      A
 Frequencies --    775.7213               931.8447              1905.8631
 Red. masses --      1.0461                 1.0261                 1.0202
 Frc consts  --      0.3709                 0.5249                 2.1833
 IR Inten    --      6.0010                21.2016                11.1682

                     19                     20                     21
                      A                      A                      A
 Frequencies --   2630.7105              2646.5998              2661.0069
 Red. masses --      1.0379                 1.0379                 1.0381
 Frc consts  --      4.2321                 4.2831                 4.3309
 IR Inten    --      4.8566                 3.0147                 3.1502

 - Thermochemistry -
 -------------------
 Temperature   298.150 Kelvin.  Pressure   1.00000 Atm.
 Atom     1 has atomic number 42 and mass  97.90550

 Molecular mass:   229.82509 amu.
 Principal axes and moments of inertia in atomic units:
                           1         2         3
     Eigenvalues --  1313.223421748.323501938.27648
           X           -0.18640   0.96383  -0.19051
           Y            0.92703   0.10833  -0.35900
           Z            0.32537   0.24353   0.91369
 This molecule is an asymmetric top.
 Rotational symmetry number  1.
 Warning -- assumption of classical behavior for rotation
           may cause significant error
 Rotational temperatures (Kelvin)      0.06596     0.04954     0.04469
 Rotational constants (GHZ):           1.37428     1.03227     0.93111
 Zero-point vibrational energy      99810.5 (Joules/Mol)
                                   23.85529 (Kcal/Mol)
 Warning -- explicit consideration of  13 degrees of freedom as
           vibrations may cause significant error
 Vibrational temperatures:     86.80   162.22   189.91   205.85   221.48
          (Kelvin)            407.25   461.58   470.03   504.46   520.27
                              579.45   803.75   868.70   922.40   984.38
                             1116.09  1340.72  2742.11  3785.01  3807.87
                             3828.60

 Zero-point correction=                           0.038016 (Hartree/Particle)
 Thermal correction to Energy=                    0.047314
 Thermal correction to Enthalpy=                  0.048258
 Thermal correction to Gibbs Free Energy=         0.001978
 Sum of electronic and zero-point Energies=          -1662.729813
 Sum of electronic and thermal Energies=             -1662.720514
 Sum of electronic and thermal Enthalpies=           -1662.719570
 Sum of electronic and thermal Free Energies=        -1662.765851

                     E (Thermal)             CV                S
                      KCal/Mol        Cal/Mol-Kelvin    Cal/Mol-Kelvin
 Total                   29.690             30.274             97.406
 Electronic               0.000              0.000              0.000
 Translational            0.889              2.981             42.198
 Rotational               0.889              2.981             29.877
 Vibrational             27.913             24.312             25.331
 Vibration     1          0.597              1.973              4.446
 Vibration     2          0.607              1.939              3.221
 Vibration     3          0.612              1.921              2.917
 Vibration     4          0.616              1.910              2.762
 Vibration     5          0.619              1.898              2.623
 Vibration     6          0.682              1.705              1.515
 Vibration     7          0.706              1.634              1.306
 Vibration     8          0.710              1.622              1.276
 Vibration     9          0.728              1.574              1.163
 Vibration    10          0.736              1.551              1.115
 Vibration    11          0.768              1.464              0.953
 Vibration    12          0.914              1.121              0.527
 Vibration    13          0.962              1.024              0.443

 Optimization completed.
    -- Stationary point found.
 Normal termination of Gaussian 16 at Sat Jul  8 07:40:35 2023.
