 Gaussian 16, Revision C.01,
 Gaussian 16:  ES64L-G16RevC.01  3-Jul-2019

 -----------------------------------------------------------
 # opt=(calcfc,ts,noeigen) freq b3lyp/gen nosymm pseudo=read
 -----------------------------------------------------------

 -------------------
 Title Card Required
 -------------------
 Symbolic Z-matrix:
 Charge =  0 Multiplicity = 1

 SCF Done:  E(RB3LYP) =  -1662.74315646     A.U. after   16 cycles
 SCF Done:  E(RB3LYP) =  -1662.74197412     A.U. after   13 cycles
 SCF Done:  E(RB3LYP) =  -1662.73923833     A.U. after   13 cycles
 SCF Done:  E(RB3LYP) =  -1662.73513522     A.U. after   13 cycles
 SCF Done:  E(RB3LYP) =  -1662.73079706     A.U. after   14 cycles
 SCF Done:  E(RB3LYP) =  -1662.72863355     A.U. after   14 cycles
 SCF Done:  E(RB3LYP) =  -1662.72836271     A.U. after   13 cycles
 SCF Done:  E(RB3LYP) =  -1662.72852111     A.U. after   13 cycles
 SCF Done:  E(RB3LYP) =  -1662.72884915     A.U. after   13 cycles
 SCF Done:  E(RB3LYP) =  -1662.72905112     A.U. after   13 cycles
 SCF Done:  E(RB3LYP) =  -1662.72908783     A.U. after   12 cycles
 SCF Done:  E(RB3LYP) =  -1662.72909608     A.U. after   12 cycles
 SCF Done:  E(RB3LYP) =  -1662.72910816     A.U. after   12 cycles
 SCF Done:  E(RB3LYP) =  -1662.72910872     A.U. after   12 cycles
 SCF Done:  E(RB3LYP) =  -1662.72911056     A.U. after   11 cycles
 Optimization completed.
    -- Stationary point found.
 Normal termination of Gaussian 16 at Sat Jul  8 08:42:49 2023.

 ------------------------------------------------------------------
 #N Geom=AllCheck Guess=TCheck SCRF=Check GenChk RB3LYP/ChkBas Freq
 ------------------------------------------------------------------

 Structure from the checkpoint file:  "/localscratch/chegho/Gau-26456.chk"
 -------------------
 Title Card Required
 -------------------
 Charge =  0 Multiplicity = 1

                          Input orientation:
 ---------------------------------------------------------------------
 Center     Atomic      Atomic             Coordinates (Angstroms)
 Number     Number       Type             X           Y           Z
 ---------------------------------------------------------------------
      1         42           0        1.973904    0.540772    0.575545
      2         16           0        0.015361   -0.288766    0.735366
      3          1           0        3.437451    1.404297   -0.137197
      4         16           0        3.226023    0.794394    2.409223
      5          1           0        3.775108    1.331730    1.081868
      6         16           0        1.322656    2.612206   -0.346244
      7          1           0       -0.002594    2.619985   -0.080261
      8         16           0        2.809581   -1.118088   -0.869317
      9          1           0        3.967989   -0.541868   -1.248518
 ---------------------------------------------------------------------

 SCF Done:  E(RB3LYP) =  -1662.72911056     A.U. after    1 cycles

 Alpha  occ. eigenvalues --  -88.89550 -88.88912 -88.88871 -88.88464  -7.97541
 Alpha  occ. eigenvalues --   -7.96678  -7.96668  -7.96418  -5.93711  -5.93396
 Alpha  occ. eigenvalues --   -5.93294  -5.92915  -5.92913  -5.92615  -5.92595
 Alpha  occ. eigenvalues --   -5.92584  -5.92404  -5.92339  -5.92332  -5.92048
 Alpha  occ. eigenvalues --   -2.57735  -1.60692  -1.59620  -1.59454  -0.75202
 Alpha  occ. eigenvalues --   -0.73856  -0.73705  -0.69818  -0.49389  -0.44445
 Alpha  occ. eigenvalues --   -0.43686  -0.38006  -0.36618  -0.35700  -0.35472
 Alpha  occ. eigenvalues --   -0.32591  -0.32113  -0.30934  -0.30604  -0.27242
 Alpha  occ. eigenvalues --   -0.26504
 Alpha virt. eigenvalues --   -0.15606  -0.14717  -0.11863  -0.10289  -0.05504
 Alpha virt. eigenvalues --    0.00169   0.00817   0.02454   0.04359   0.04992
 Alpha virt. eigenvalues --    0.06562   0.07100   0.16486   0.17227   0.20438

 Mulliken charges:
               1
     1  Mo   0.077207
     2  S   -0.153827
     3  H   -0.034834
     4  S   -0.135614
     5  H    0.139669
     6  S   -0.025095
     7  H    0.089187
     8  S   -0.057408
     9  H    0.100714
 Sum of Mulliken charges =  -0.00000

 Dipole moment (field-independent basis, Debye):
    X=              0.6135    Y=              0.5809    Z=              0.0256  Tot=              0.8453
 Quadrupole moment (field-independent basis, Debye-Ang):
   XX=            -71.1435   YY=            -80.3579   ZZ=            -80.1548
   XY=             -1.1127   XZ=             -1.8663   YZ=              0.6406

  Exact polarizability:     135.983      -3.444     127.419       9.853       5.808     118.421
 Approx polarizability:     376.843      23.524     282.068      51.674      16.926     284.755

 ******    1 imaginary frequencies (negative Signs) ******

                      1                      2                      3
                      A                      A                      A
 Frequencies --  -1236.0034                94.2999               108.1019
 Red. masses --      1.0175                10.9910                17.1259
 Frc consts  --      0.9159                 0.0576                 0.1179
 IR Inten    --    222.7765                 1.4537                 1.3260

                      4                      5                      6
                      A                      A                      A
 Frequencies --    136.2297               152.2775               181.1171
 Red. masses --     21.3884                21.4086                13.9391
 Frc consts  --      0.2339                 0.2925                 0.2694
 IR Inten    --      0.1824                 0.4833                 6.4932

                      7                      8                      9
                      A                      A                      A
 Frequencies --    347.8373               354.4614               377.3757
 Red. masses --      4.0450                 1.6541                 6.6975
 Frc consts  --      0.2884                 0.1224                 0.5620
 IR Inten    --      6.3838                28.7668                26.1715

                     10                     11                     12
                      A                      A                      A
 Frequencies --    396.9623               457.9635               541.3358
 Red. masses --      1.2404                 5.4935                 7.6261
 Frc consts  --      0.1152                 0.6788                 1.3167
 IR Inten    --     39.0380                45.4750                58.8002

                     13                     14                     15
                      A                      A                      A
 Frequencies --    570.7761               719.2438               757.8588
 Red. masses --      1.1405                 1.0517                 1.0587
 Frc consts  --      0.2189                 0.3205                 0.3583
 IR Inten    --     10.1282                 8.6436                 9.4830

                     16                     17                     18
                      A                      A                      A
 Frequencies --    883.6440               927.8359              1449.1094
 Red. masses --      1.0690                 1.0164                 1.0245
 Frc consts  --      0.4918                 0.5155                 1.2675
 IR Inten    --     12.7888                15.5830                29.2801

                     19                     20                     21
                      A                      A                      A
 Frequencies --   1642.4132              2661.0901              2690.8956
 Red. masses --      1.0170                 1.0381                 1.0383
 Frc consts  --      1.6164                 4.3310                 4.4296
 IR Inten    --     79.6272                 2.7220                 1.4799

 - Thermochemistry -
 -------------------
 Temperature   298.150 Kelvin.  Pressure   1.00000 Atm.
 Atom     1 has atomic number 42 and mass  97.90550

 Molecular mass:   229.82509 amu.
 Principal axes and moments of inertia in atomic units:
                           1         2         3
     Eigenvalues --  1465.337131534.654641879.67535
           X           -0.43411   0.66343  -0.60944
           Y            0.89631   0.25015  -0.36614
           Z            0.09046   0.70519   0.70323
 This molecule is an asymmetric top.
 Rotational symmetry number  1.
 Warning -- assumption of classical behavior for rotation
           may cause significant error
 Rotational temperatures (Kelvin)      0.05911     0.05644     0.04608
 Rotational constants (GHZ):           1.23162     1.17599     0.96013
    1 imaginary frequencies ignored.
 Zero-point vibrational energy      92416.5 (Joules/Mol)
                                   22.08807 (Kcal/Mol)
 Warning -- explicit consideration of  12 degrees of freedom as
           vibrations may cause significant error
 Vibrational temperatures:    135.68   155.53   196.00   219.09   260.59
          (Kelvin)            500.46   509.99   542.96   571.14   658.91
                              778.86   821.22  1034.83  1090.39  1271.37
                             1334.95  2084.95  2363.07  3828.72  3871.60

 Zero-point correction=                           0.035200 (Hartree/Particle)
 Thermal correction to Energy=                    0.043700
 Thermal correction to Enthalpy=                  0.044644
 Thermal correction to Gibbs Free Energy=         0.000115
 Sum of electronic and zero-point Energies=          -1662.693911
 Sum of electronic and thermal Energies=             -1662.685411
 Sum of electronic and thermal Enthalpies=           -1662.684466
 Sum of electronic and thermal Free Energies=        -1662.728995

                     E (Thermal)             CV                S
                      KCal/Mol        Cal/Mol-Kelvin    Cal/Mol-Kelvin
 Total                   27.422             27.915             93.719
 Electronic               0.000              0.000              0.000
 Translational            0.889              2.981             42.198
 Rotational               0.889              2.981             29.826
 Vibrational             25.645             21.953             21.695
 Vibration     1          0.603              1.953              3.569
 Vibration     2          0.606              1.943              3.303
 Vibration     3          0.614              1.917              2.856
 Vibration     4          0.619              1.900              2.644
 Vibration     5          0.630              1.865              2.317
 Vibration     6          0.725              1.580              1.176
 Vibration     7          0.730              1.566              1.146
 Vibration     8          0.748              1.518              1.050
 Vibration     9          0.763              1.477              0.974
 Vibration    10          0.816              1.343              0.772
 Vibration    11          0.896              1.159              0.562
 Vibration    12          0.927              1.094              0.503

 Optimization completed.
    -- Stationary point found.
 Normal termination of Gaussian 16 at Sat Jul  8 08:43:00 2023.
