 Gaussian 16, Revision C.01,
 Gaussian 16:  ES64L-G16RevC.01  3-Jul-2019

 ---------------------------------------
 # opt freq b3lyp/gen nosymm pseudo=read
 ---------------------------------------

 -------------------
 Title Card Required
 -------------------
 Symbolic Z-matrix:
 Charge =  0 Multiplicity = 1

 SCF Done:  E(RB3LYP) =  -2069.20770290     A.U. after   25 cycles
 SCF Done:  E(RB3LYP) =  -2069.22324823     A.U. after   16 cycles
 SCF Done:  E(RB3LYP) =  -2069.23076166     A.U. after   16 cycles
 SCF Done:  E(RB3LYP) =  -2069.23186223     A.U. after   16 cycles
 SCF Done:  E(RB3LYP) =  -2069.23245823     A.U. after   15 cycles
 SCF Done:  E(RB3LYP) =  -2069.23259423     A.U. after   14 cycles
 SCF Done:  E(RB3LYP) =  -2069.23266672     A.U. after   14 cycles
 SCF Done:  E(RB3LYP) =  -2069.23268950     A.U. after   13 cycles
 SCF Done:  E(RB3LYP) =  -2069.23269494     A.U. after   12 cycles
 SCF Done:  E(RB3LYP) =  -2069.23269696     A.U. after   11 cycles
 SCF Done:  E(RB3LYP) =  -2069.23269794     A.U. after   12 cycles
 SCF Done:  E(RB3LYP) =  -2069.23269814     A.U. after   11 cycles
 SCF Done:  E(RB3LYP) =  -2069.23269822     A.U. after   10 cycles
 Optimization completed.
    -- Stationary point found.
 Normal termination of Gaussian 16 at Mon Oct 17 14:02:27 2022.

 ------------------------------------------------------------------
 #N Geom=AllCheck Guess=TCheck SCRF=Check GenChk RB3LYP/ChkBas Freq
 ------------------------------------------------------------------

 Structure from the checkpoint file:  "/home/chesagar/scratch/Gau-178679.chk"
 -------------------
 Title Card Required
 -------------------
 Charge =  0 Multiplicity = 1

                          Input orientation:
 ---------------------------------------------------------------------
 Center     Atomic      Atomic             Coordinates (Angstroms)
 Number     Number       Type             X           Y           Z
 ---------------------------------------------------------------------
      1         42           0       -0.386035    2.136942   10.885910
      2         16           0        1.804422    2.911684   10.853044
      3         16           0       -1.672609    3.932052   10.801841
      4         16           0       -0.756702    0.789467    9.159194
      5         16           0       -1.042046    1.102113   12.865056
      6          1           0       -0.417361   -0.078321   12.637312
      7          1           0        2.370916    1.801318   10.325688
      8         42           0       -2.177438    2.712723    8.765280
      9          6           0       -2.998888    1.701296    7.194770
     10          6           0       -1.027302    3.707372    7.531161
     11          6           0       -3.696204    4.048730    8.478539
     12          8           0       -3.475819    1.136610    6.311784
     13          8           0       -0.299359    4.283409    6.839496
     14          8           0       -4.562528    4.788898    8.313406
 ---------------------------------------------------------------------

 SCF Done:  E(RB3LYP) =  -2069.23269822     A.U. after    1 cycles

 Alpha  occ. eigenvalues --  -88.89919 -88.89366 -88.88903 -88.88840 -19.24728
 Alpha  occ. eigenvalues --  -19.24726 -19.22936 -10.32191 -10.32179 -10.30948
 Alpha  occ. eigenvalues --   -7.97658  -7.97131  -7.96778  -7.96716  -5.93687
 Alpha  occ. eigenvalues --   -5.93628  -5.93509  -5.93132  -5.93124  -5.93030
 Alpha  occ. eigenvalues --   -5.92985  -5.92978  -5.92679  -5.92625  -5.92444
 Alpha  occ. eigenvalues --   -5.92366  -2.55824  -2.49427  -1.58678  -1.58125
 Alpha  occ. eigenvalues --   -1.57686  -1.52501  -1.51990  -1.51617  -1.14985
 Alpha  occ. eigenvalues --   -1.14944  -1.13082  -0.74870  -0.74192  -0.72224
 Alpha  occ. eigenvalues --   -0.71444  -0.58494  -0.57482  -0.56550  -0.48247
 Alpha  occ. eigenvalues --   -0.47371  -0.47012  -0.46978  -0.46739  -0.45533
 Alpha  occ. eigenvalues --   -0.45501  -0.44885  -0.44743  -0.44256  -0.44078
 Alpha  occ. eigenvalues --   -0.37562  -0.37177  -0.36687  -0.36394  -0.34945
 Alpha  occ. eigenvalues --   -0.33804  -0.32693  -0.32053  -0.31352  -0.27736
 Alpha  occ. eigenvalues --   -0.25727  -0.23998  -0.23827
 Alpha virt. eigenvalues --   -0.14826  -0.13494  -0.12132  -0.11058  -0.08382
 Alpha virt. eigenvalues --   -0.08023  -0.02930  -0.02487  -0.01554  -0.01450
 Alpha virt. eigenvalues --   -0.00904   0.00113   0.00284   0.01109   0.01295

 Mulliken charges:
               1
     1  Mo   0.166180
     2  S   -0.114906
     3  S    0.016824
     4  S   -0.013073
     5  S   -0.114592
     6  H    0.095334
     7  H    0.099877
     8  Mo  -0.112294
     9  C    0.216412
    10  C    0.253481
    11  C    0.214737
    12  O   -0.228093
    13  O   -0.252571
    14  O   -0.227316
 Sum of Mulliken charges =  -0.00000

 Dipole moment (field-independent basis, Debye):
    X=              0.7762    Y=             -2.1541    Z=              1.0046  Tot=              2.5004
 Quadrupole moment (field-independent basis, Debye-Ang):
   XX=           -131.0894   YY=           -140.7221   ZZ=           -118.1980
   XY=             -0.3473   XZ=              6.7906   YZ=            -20.6189

  Exact polarizability:     225.267     -13.456     177.958      51.919     -23.402     245.130
 Approx polarizability:     549.070     -46.509     438.791     146.669     -35.015     604.181

                      1                      2                      3
                      A                      A                      A
 Frequencies --     40.4512                44.7864                68.6036
 Red. masses --     14.1108                15.7429                13.4657
 Frc consts  --      0.0136                 0.0186                 0.0373
 IR Inten    --      0.0086                 0.2408                 0.5472

                      4                      5                      6
                      A                      A                      A
 Frequencies --     82.5983                83.7518                85.5412
 Red. masses --     15.2560                15.7429                14.8254
 Frc consts  --      0.0613                 0.0651                 0.0639
 IR Inten    --      1.6957                 0.3435                 0.1150

                      7                      8                      9
                      A                      A                      A
 Frequencies --     95.0899               101.3024               111.5290
 Red. masses --     18.3512                 5.1899                13.1443
 Frc consts  --      0.0978                 0.0314                 0.0963
 IR Inten    --      1.0333                 0.9394                 0.3246

                     10                     11                     12
                      A                      A                      A
 Frequencies --    120.0833               173.8844               191.6886
 Red. masses --     13.8243                 6.7829                 5.4816
 Frc consts  --      0.1175                 0.1208                 0.1187
 IR Inten    --      0.9786                 2.8234                 1.9419

                     13                     14                     15
                      A                      A                      A
 Frequencies --    204.4394               293.3681               309.2853
 Red. masses --      2.0456                21.7232                 1.4729
 Frc consts  --      0.0504                 1.1015                 0.0830
 IR Inten    --      5.9683                30.3007                14.3711

                     16                     17                     18
                      A                      A                      A
 Frequencies --    315.4558               364.4743               387.5984
 Red. masses --      4.1330                21.6462                21.9202
 Frc consts  --      0.2423                 1.6942                 1.9403
 IR Inten    --      6.0948                23.0921                47.7121

                     19                     20                     21
                      A                      A                      A
 Frequencies --    399.8696               402.2180               407.7175
 Red. masses --     13.4087                13.8699                15.2328
 Frc consts  --      1.2632                 1.3220                 1.4919
 IR Inten    --      1.4614                 0.3527                28.5484

                     22                     23                     24
                      A                      A                      A
 Frequencies --    429.9439               435.5977               462.9821
 Red. masses --     13.3922                13.1370                28.8431
 Frc consts  --      1.4586                 1.4687                 3.6427
 IR Inten    --      9.3955                34.6518                 5.8118

                     25                     26                     27
                      A                      A                      A
 Frequencies --    478.0190               483.1750               522.1769
 Red. masses --     15.9094                14.1684                12.9545
 Frc consts  --      2.1419                 1.9489                 2.0812
 IR Inten    --     11.0619                 2.5756                42.9572

                     28                     29                     30
                      A                      A                      A
 Frequencies --    542.1240               606.1226               612.8481
 Red. masses --     12.6708                 2.1651                 1.8276
 Frc consts  --      2.1941                 0.4686                 0.4044
 IR Inten    --      5.7609                15.8194                39.2785

                     31                     32                     33
                      A                      A                      A
 Frequencies --    635.6938              2038.6512              2076.1128
 Red. masses --      1.1058                13.3705                13.3880
 Frc consts  --      0.2633                32.7404                33.9992
 IR Inten    --      9.9342               854.5464               606.5453

                     34                     35                     36
                      A                      A                      A
 Frequencies --   2113.0565              2637.1051              2648.3259
 Red. masses --     13.3609                 1.0380                 1.0381
 Frc consts  --     35.1487                 4.2530                 4.2898
 IR Inten    --   1722.3578                 1.2465                 1.1746

 - Thermochemistry -
 -------------------
 Temperature   298.150 Kelvin.  Pressure   1.00000 Atm.
 Atom     1 has atomic number 42 and mass  97.90550

 Molecular mass:   409.69968 amu.
 Principal axes and moments of inertia in atomic units:
                           1         2         3
     Eigenvalues --  3088.859627198.266077352.10808
           X            0.59603   0.79128  -0.13643
           Y           -0.21336   0.31988   0.92312
           Z            0.77409  -0.52110   0.35949
 This molecule is an asymmetric top.
 Rotational symmetry number  1.
 Warning -- assumption of classical behavior for rotation
           may cause significant error
 Rotational temperatures (Kelvin)      0.02804     0.01203     0.01178
 Rotational constants (GHZ):           0.58427     0.25072     0.24547
 Zero-point vibrational energy     125641.8 (Joules/Mol)
                                   30.02911 (Kcal/Mol)
 Warning -- explicit consideration of  30 degrees of freedom as
           vibrations may cause significant error
 Vibrational temperatures:     58.20    64.44    98.71   118.84   120.50
          (Kelvin)            123.07   136.81   145.75   160.47   172.77
                              250.18   275.80   294.14   422.09   444.99
                              453.87   524.40   557.67   575.32   578.70
                              586.61   618.59   626.73   666.13   687.76
                              695.18   751.30   780.00   872.08   881.75
                              914.62  2933.16  2987.06  3040.22  3794.21
                             3810.35

 Zero-point correction=                           0.047854 (Hartree/Particle)
 Thermal correction to Energy=                    0.065066
 Thermal correction to Enthalpy=                  0.066010
 Thermal correction to Gibbs Free Energy=         0.000121
 Sum of electronic and zero-point Energies=          -2069.184844
 Sum of electronic and thermal Energies=             -2069.167632
 Sum of electronic and thermal Enthalpies=           -2069.166688
 Sum of electronic and thermal Free Energies=        -2069.232577

                     E (Thermal)             CV                S
                      KCal/Mol        Cal/Mol-Kelvin    Cal/Mol-Kelvin
 Total                   40.829             55.605            138.674
 Electronic               0.000              0.000              0.000
 Translational            0.889              2.981             43.922
 Rotational               0.889              2.981             33.458
 Vibrational             39.052             49.644             61.295
 Vibration     1          0.594              1.981              5.237
 Vibration     2          0.595              1.979              5.035
 Vibration     3          0.598              1.969              4.193
 Vibration     4          0.600              1.961              3.828
 Vibration     5          0.601              1.960              3.801
 Vibration     6          0.601              1.959              3.760
 Vibration     7          0.603              1.953              3.553
 Vibration     8          0.604              1.948              3.429
 Vibration     9          0.607              1.940              3.242
 Vibration    10          0.609              1.933              3.099
 Vibration    11          0.627              1.875              2.393
 Vibration    12          0.634              1.851              2.211
 Vibration    13          0.640              1.834              2.093
 Vibration    14          0.688              1.686              1.454
 Vibration    15          0.699              1.656              1.366
 Vibration    16          0.703              1.644              1.334
 Vibration    17          0.738              1.545              1.103
 Vibration    18          0.756              1.497              1.009
 Vibration    19          0.766              1.470              0.963
 Vibration    20          0.768              1.465              0.955
 Vibration    21          0.772              1.453              0.935
 Vibration    22          0.791              1.405              0.859
 Vibration    23          0.796              1.393              0.841
 Vibration    24          0.821              1.332              0.757
 Vibration    25          0.835              1.299              0.715
 Vibration    26          0.839              1.287              0.702
 Vibration    27          0.877              1.201              0.605
 Vibration    28          0.897              1.157              0.561
 Vibration    29          0.965              1.019              0.439
 Vibration    30          0.972              1.005              0.428

 Optimization completed.
    -- Stationary point found.
 Normal termination of Gaussian 16 at Mon Oct 17 14:03:02 2022.
