 Gaussian 16, Revision C.01,
 Gaussian 16:  ES64L-G16RevC.01  3-Jul-2019

 ---------------------------------------
 # opt freq b3lyp/gen nosymm pseudo=read
 ---------------------------------------

 -------------------
 Title Card Required
 -------------------
 Symbolic Z-matrix:
 Charge =  0 Multiplicity = 1

 SCF Done:  E(RB3LYP) =  -1955.85805674     A.U. after   24 cycles
 SCF Done:  E(RB3LYP) =  -1955.85805754     A.U. after   13 cycles
 SCF Done:  E(RB3LYP) =  -1955.85805778     A.U. after   12 cycles
 SCF Done:  E(RB3LYP) =  -1955.85805787     A.U. after   11 cycles
 Optimization completed.
    -- Stationary point found.
 Normal termination of Gaussian 16 at Mon Oct 24 16:18:20 2022.

 ------------------------------------------------------------------
 #N Geom=AllCheck Guess=TCheck SCRF=Check GenChk RB3LYP/ChkBas Freq
 ------------------------------------------------------------------

 Structure from the checkpoint file:  "/localscratch/chegho/Gau-84609.chk"
 -------------------
 Title Card Required
 -------------------
 Charge =  0 Multiplicity = 1

                          Input orientation:
 ---------------------------------------------------------------------
 Center     Atomic      Atomic             Coordinates (Angstroms)
 Number     Number       Type             X           Y           Z
 ---------------------------------------------------------------------
      1         42           0       -0.026901    2.439250   11.312439
      2         16           0        2.092365    3.308757   11.029598
      3         16           0       -1.465391    4.134054   10.927747
      4         16           0       -0.373829    0.799541    9.811754
      5         16           0       -0.288342    1.388298   13.382606
      6          1           0       -0.745918    0.188430   12.967700
      7          1           0        2.802058    2.162645   10.900466
      8         42           0       -1.817029    2.596783    9.218129
      9          6           0       -0.776868    3.565260    7.884988
     10          6           0       -3.494301    3.635126    8.642119
     11          8           0       -0.101049    4.148830    7.144835
     12          8           0       -4.444721    4.194907    8.311178
 ---------------------------------------------------------------------

 SCF Done:  E(RB3LYP) =  -1955.85805787     A.U. after    1 cycles

 Alpha  occ. eigenvalues --  -88.89130 -88.88303 -88.88092 -88.88005 -19.25380
 Alpha  occ. eigenvalues --  -19.22530 -10.32397 -10.30469  -7.96936  -7.96184
 Alpha  occ. eigenvalues --   -7.95918  -7.95900  -5.92957  -5.92882  -5.92802
 Alpha  occ. eigenvalues --   -5.92431  -5.92148  -5.92085  -5.91925  -5.91889
 Alpha  occ. eigenvalues --   -5.91856  -5.91785  -5.91780  -5.91589  -2.54426
 Alpha  occ. eigenvalues --   -2.49715  -1.57537  -1.56856  -1.56025  -1.52536
 Alpha  occ. eigenvalues --   -1.52403  -1.51841  -1.15486  -1.12569  -0.74094
 Alpha  occ. eigenvalues --   -0.73420  -0.71549  -0.70623  -0.58406  -0.56326
 Alpha  occ. eigenvalues --   -0.47581  -0.47437  -0.47101  -0.45244  -0.45050
 Alpha  occ. eigenvalues --   -0.44587  -0.43658  -0.43461  -0.37380  -0.37143
 Alpha  occ. eigenvalues --   -0.36147  -0.35376  -0.34049  -0.33173  -0.32169
 Alpha  occ. eigenvalues --   -0.31623  -0.30210  -0.27612  -0.25393  -0.23673
 Alpha  occ. eigenvalues --   -0.22550
 Alpha virt. eigenvalues --   -0.14213  -0.13820  -0.12163  -0.10441  -0.09396
 Alpha virt. eigenvalues --   -0.07102  -0.04907  -0.01795  -0.01400  -0.00919
 Alpha virt. eigenvalues --    0.00143   0.00584   0.01065   0.02041   0.03312

 Mulliken charges:
               1
     1  Mo   0.181506
     2  S   -0.131237
     3  S   -0.042122
     4  S   -0.062830
     5  S   -0.146558
     6  H    0.108071
     7  H    0.099130
     8  Mo   0.041945
     9  C    0.227386
    10  C    0.190676
    11  O   -0.248964
    12  O   -0.217004
 Sum of Mulliken charges =  -0.00000

 Dipole moment (field-independent basis, Debye):
    X=             -0.9719    Y=             -2.3134    Z=             -0.1264  Tot=              2.5125
 Quadrupole moment (field-independent basis, Debye-Ang):
   XX=           -116.0482   YY=           -132.2773   ZZ=           -127.4375
   XY=             -0.1140   XZ=             -7.5424   YZ=            -22.3701

  Exact polarizability:     215.362     -17.371     164.383      41.074     -40.338     218.255
 Approx polarizability:     539.211     -64.993     419.196     145.683     -98.064     555.381

                      1                      2                      3
                      A                      A                      A
 Frequencies --     37.7297                62.6553                71.4198
 Red. masses --     17.9302                13.9353                17.0494
 Frc consts  --      0.0150                 0.0322                 0.0512
 IR Inten    --      0.2343                 0.1816                 0.9030

                      4                      5                      6
                      A                      A                      A
 Frequencies --     80.3387                83.4476               100.8995
 Red. masses --     16.0342                14.6531                11.9363
 Frc consts  --      0.0610                 0.0601                 0.0716
 IR Inten    --      0.3688                 1.3883                 1.3616

                      7                      8                      9
                      A                      A                      A
 Frequencies --    110.5295               127.1139               155.5583
 Red. masses --     20.8501                15.5790                 2.6067
 Frc consts  --      0.1501                 0.1483                 0.0372
 IR Inten    --      0.3127                 0.4498                 5.3278

                     10                     11                     12
                      A                      A                      A
 Frequencies --    192.0228               209.8965               292.4358
 Red. masses --      8.6477                 2.0161                19.4200
 Frc consts  --      0.1879                 0.0523                 0.9785
 IR Inten    --      1.3459                 4.0222                16.7785

                     13                     14                     15
                      A                      A                      A
 Frequencies --    329.1921               340.6352               362.0563
 Red. masses --      1.2081                22.3587                15.8272
 Frc consts  --      0.0771                 1.5285                 1.2224
 IR Inten    --     20.1509                 4.6833                24.3171

                     16                     17                     18
                      A                      A                      A
 Frequencies --    386.3417               390.7797               409.6943
 Red. masses --     14.8681                24.6171                13.6629
 Frc consts  --      1.3075                 2.2149                 1.3512
 IR Inten    --     30.6877                32.4046                14.8707

                     19                     20                     21
                      A                      A                      A
 Frequencies --    421.9412               445.9016               447.6926
 Red. masses --     14.3421                21.0393                14.8333
 Frc consts  --      1.5044                 2.4647                 1.7517
 IR Inten    --     20.7793                 7.4509                10.8209

                     22                     23                     24
                      A                      A                      A
 Frequencies --    486.9268               495.8191               575.0176
 Red. masses --     16.1761                14.5285                11.2612
 Frc consts  --      2.2597                 2.1043                 2.1938
 IR Inten    --     17.6539                 1.7955                22.1792

                     25                     26                     27
                      A                      A                      A
 Frequencies --    611.8984               634.6017              2024.1966
 Red. masses --      1.0664                 1.0940                13.3676
 Frc consts  --      0.2352                 0.2596                32.2706
 IR Inten    --      6.9785                 4.5108               880.0166

                     28                     29                     30
                      A                      A                      A
 Frequencies --   2091.4565              2638.6415              2679.0529
 Red. masses --     13.3795                 1.0382                 1.0383
 Frc consts  --     34.4816                 4.2587                 4.3908
 IR Inten    --   1453.6695                 0.8179                 0.7877

 - Thermochemistry -
 -------------------
 Temperature   298.150 Kelvin.  Pressure   1.00000 Atm.
 Atom     1 has atomic number 42 and mass  97.90550

 Molecular mass:   381.70477 amu.
 Principal axes and moments of inertia in atomic units:
                           1         2         3
     Eigenvalues --  2450.005645659.733466288.63000
           X            0.62103   0.77769  -0.09756
           Y           -0.26799   0.32766   0.90599
           Z            0.73655  -0.53650   0.41189
 This molecule is an asymmetric top.
 Rotational symmetry number  1.
 Warning -- assumption of classical behavior for rotation
           may cause significant error
 Rotational temperatures (Kelvin)      0.03535     0.01530     0.01377
 Rotational constants (GHZ):           0.73663     0.31887     0.28698
 Zero-point vibrational energy     103452.4 (Joules/Mol)
                                   24.72572 (Kcal/Mol)
 Warning -- explicit consideration of  25 degrees of freedom as
           vibrations may cause significant error
 Vibrational temperatures:     54.28    90.15   102.76   115.59   120.06
          (Kelvin)            145.17   159.03   182.89   223.81   276.28
                              301.99   420.75   473.63   490.10   520.92
                              555.86   562.24   589.46   607.08   641.55
                              644.13   700.58   713.37   827.32   880.39
                              913.05  2912.37  3009.14  3796.42  3854.56

 Zero-point correction=                           0.039403 (Hartree/Particle)
 Thermal correction to Energy=                    0.054349
 Thermal correction to Enthalpy=                  0.055293
 Thermal correction to Gibbs Free Energy=        -0.005428
 Sum of electronic and zero-point Energies=          -1955.818655
 Sum of electronic and thermal Energies=             -1955.803709
 Sum of electronic and thermal Enthalpies=           -1955.802765
 Sum of electronic and thermal Free Energies=        -1955.863486

                     E (Thermal)             CV                S
                      KCal/Mol        Cal/Mol-Kelvin    Cal/Mol-Kelvin
 Total                   34.104             47.852            127.799
 Electronic               0.000              0.000              0.000
 Translational            0.889              2.981             43.711
 Rotational               0.889              2.981             32.833
 Vibrational             32.327             41.890             51.255
 Vibration     1          0.594              1.982              5.375
 Vibration     2          0.597              1.972              4.372
 Vibration     3          0.598              1.968              4.114
 Vibration     4          0.600              1.962              3.883
 Vibration     5          0.600              1.961              3.808
 Vibration     6          0.604              1.948              3.437
 Vibration     7          0.606              1.941              3.260
 Vibration     8          0.611              1.926              2.989
 Vibration     9          0.620              1.896              2.603
 Vibration    10          0.634              1.851              2.208
 Vibration    11          0.642              1.826              2.045
 Vibration    12          0.688              1.688              1.460
 Vibration    13          0.712              1.617              1.264
 Vibration    14          0.720              1.594              1.209
 Vibration    15          0.736              1.550              1.113
 Vibration    16          0.755              1.499              1.014
 Vibration    17          0.758              1.490              0.997
 Vibration    18          0.774              1.449              0.928
 Vibration    19          0.784              1.423              0.885
 Vibration    20          0.805              1.370              0.808
 Vibration    21          0.807              1.366              0.803
 Vibration    22          0.843              1.279              0.692
 Vibration    23          0.851              1.259              0.669
 Vibration    24          0.931              1.085              0.495
 Vibration    25          0.971              1.007              0.430

                           ! Non-Optimized Parameters !
 Normal termination of Gaussian 16 at Mon Oct 24 16:18:39 2022.
