 Gaussian 16, Revision C.01,
 Gaussian 16:  ES64L-G16RevC.01  3-Jul-2019

 ---------------------------------------
 # opt freq b3lyp/gen nosymm pseudo=read
 ---------------------------------------

 -------------------
 Title Card Required
 -------------------
 Symbolic Z-matrix:
 Charge =  0 Multiplicity = 1

 SCF Done:  E(RB3LYP) =  -520.895002802     A.U. after   16 cycles
 SCF Done:  E(RB3LYP) =  -520.895003525     A.U. after   10 cycles
 SCF Done:  E(RB3LYP) =  -520.895004100     A.U. after   10 cycles
 Optimization completed.
    -- Stationary point found.
 Normal termination of Gaussian 16 at Thu Nov  4 09:38:07 2021.

 ------------------------------------------------------------------
 #N Geom=AllCheck Guess=TCheck SCRF=Check GenChk RB3LYP/ChkBas Freq
 ------------------------------------------------------------------

 Structure from the checkpoint file:  "MoCO4.chk"
 -------------------
 Title Card Required
 -------------------
 Charge =  0 Multiplicity = 1

                          Input orientation:
 ---------------------------------------------------------------------
 Center     Atomic      Atomic             Coordinates (Angstroms)
 Number     Number       Type             X           Y           Z
 ---------------------------------------------------------------------
      1         42           0        0.465023    0.000130   -0.402595
      2          6           0        0.478201    2.070352   -0.417088
      3          6           0        2.406899    0.000082   -0.543840
      4          6           0        0.478118   -2.070094   -0.416727
      5          6           0        0.352425   -0.000040   -2.346255
      6          8           0        0.520399    3.221016   -0.464469
      7          8           0        0.279551   -0.000121   -3.505452
      8          8           0        3.565706    0.000032   -0.623043
      9          8           0        0.520269   -3.220768   -0.463912
 ---------------------------------------------------------------------

 SCF Done:  E(RB3LYP) =  -520.895004100     A.U. after    1 cycles

 Alpha  occ. eigenvalues --  -19.24415 -19.24414 -19.21333 -19.21331 -10.31229
 Alpha  occ. eigenvalues --  -10.31227 -10.29543 -10.29541  -2.46658  -1.49801
 Alpha  occ. eigenvalues --   -1.49388  -1.49329  -1.14555  -1.14541  -1.11516
 Alpha  occ. eigenvalues --   -1.11475  -0.58497  -0.56844  -0.55677  -0.55016
 Alpha  occ. eigenvalues --   -0.47947  -0.46889  -0.46808  -0.46449  -0.46404
 Alpha  occ. eigenvalues --   -0.44937  -0.44406  -0.43929  -0.43824  -0.43612
 Alpha  occ. eigenvalues --   -0.42708  -0.40551  -0.24187  -0.23845  -0.23414
 Alpha virt. eigenvalues --   -0.10815  -0.10757  -0.01951  -0.01541  -0.01490
 Alpha virt. eigenvalues --    0.00270   0.01251   0.02222   0.02932   0.03044
 Alpha virt. eigenvalues --    0.03252   0.03982   0.04213   0.07617   0.11470

 Mulliken charges:
               1
     1  Mo   0.141203
     2  C    0.219129
     3  C    0.210533
     4  C    0.219128
     5  C    0.210539
     6  O   -0.229121
     7  O   -0.271137
     8  O   -0.271152
     9  O   -0.229121
 Sum of Mulliken charges =  -0.00000

 Dipole moment (field-independent basis, Debye):
    X=             -2.4605    Y=              0.0003    Z=              2.8041  Tot=              3.7306
 Quadrupole moment (field-independent basis, Debye-Ang):
   XX=            -69.4082   YY=            -70.5182   ZZ=            -69.2376
   XY=             -0.0002   XZ=              1.7611   YZ=              0.0006

  Exact polarizability:      78.496       0.002     133.455       8.615      -0.005      76.237
 Approx polarizability:     169.075       0.004     316.435      15.031      -0.014     165.133

                      1                      2                      3
                      A                      A                      A
 Frequencies --     69.0563                69.5274                87.0146
 Red. masses --     16.4597                18.5359                15.4617
 Frc consts  --      0.0462                 0.0528                 0.0690
 IR Inten    --      0.0338                 0.8423                 0.0000

                      4                      5                      6
                      A                      A                      A
 Frequencies --     96.5472               102.5247               340.2507
 Red. masses --     16.7586                18.1947                13.5810
 Frc consts  --      0.0920                 0.1127                 0.9264
 IR Inten    --      2.0929                 0.9416                11.6959

                      7                      8                      9
                      A                      A                      A
 Frequencies --    344.2749               366.0592               393.4930
 Red. masses --     12.7260                16.6476                14.1065
 Frc consts  --      0.8887                 1.3143                 1.2869
 IR Inten    --      0.0015                61.1322                 2.8844

                     10                     11                     12
                      A                      A                      A
 Frequencies --    395.9583               473.8571               485.1621
 Red. masses --     12.8287                15.4350                15.0389
 Frc consts  --      1.1850                 2.0420                 2.0856
 IR Inten    --      1.7296                 9.9986                 0.7228

                     13                     14                     15
                      A                      A                      A
 Frequencies --    554.6004               560.9398               575.2150
 Red. masses --     12.3350                12.7726                14.1678
 Frc consts  --      2.2354                 2.3679                 2.7619
 IR Inten    --      0.0000                16.6172                29.0819

                     16                     17                     18
                      A                      A                      A
 Frequencies --    584.6430               644.6740              2007.7420
 Red. masses --     13.8138                14.4076                13.3679
 Frc consts  --      2.7819                 3.5280                31.7489
 IR Inten    --      7.2112                16.0521              1119.1363

                     19                     20                     21
                      A                      A                      A
 Frequencies --   2036.2603              2052.2535              2141.7180
 Red. masses --     13.3570                13.4481                13.3195
 Frc consts  --     32.6306                33.3713                35.9968
 IR Inten    --    581.0358              2092.7585                19.4209

 - Thermochemistry -
 -------------------
 Temperature   298.150 Kelvin.  Pressure   1.00000 Atm.
 Atom     1 has atomic number 42 and mass  97.90550

 Molecular mass:   209.88516 amu.
 Principal axes and moments of inertia in atomic units:
                           1         2         3
     Eigenvalues --  1234.328062081.032092258.17165
           X            0.00002   0.75159  -0.65963
           Y            1.00000   0.00005   0.00008
           Z           -0.00009   0.65963   0.75159
 This molecule is an asymmetric top.
 Rotational symmetry number  1.
 Warning -- assumption of classical behavior for rotation
           may cause significant error
 Rotational temperatures (Kelvin)      0.07017     0.04162     0.03836
 Rotational constants (GHZ):           1.46212     0.86723     0.79920
 Zero-point vibrational energy      86022.1 (Joules/Mol)
                                   20.55977 (Kcal/Mol)
 Warning -- explicit consideration of  16 degrees of freedom as
           vibrations may cause significant error
 Vibrational temperatures:     99.36   100.03   125.19   138.91   147.51
          (Kelvin)            489.54   495.33   526.68   566.15   569.70
                              681.77   698.04   797.95   807.07   827.61
                              841.17   927.54  2888.69  2929.72  2952.74
                             3081.45

 Zero-point correction=                           0.032764 (Hartree/Particle)
 Thermal correction to Energy=                    0.042461
 Thermal correction to Enthalpy=                  0.043405
 Thermal correction to Gibbs Free Energy=        -0.004283
 Sum of electronic and zero-point Energies=           -520.862240
 Sum of electronic and thermal Energies=              -520.852543
 Sum of electronic and thermal Enthalpies=            -520.851599
 Sum of electronic and thermal Free Energies=         -520.899287

                     E (Thermal)             CV                S
                      KCal/Mol        Cal/Mol-Kelvin    Cal/Mol-Kelvin
 Total                   26.645             31.406            100.368
 Electronic               0.000              0.000              0.000
 Translational            0.889              2.981             41.928
 Rotational               0.889              2.981             30.140
 Vibrational             24.867             25.445             28.300
 Vibration     1          0.598              1.969              4.180
 Vibration     2          0.598              1.969              4.167
 Vibration     3          0.601              1.958              3.726
 Vibration     4          0.603              1.952              3.523
 Vibration     5          0.605              1.947              3.406
 Vibration     6          0.720              1.595              1.211
 Vibration     7          0.723              1.587              1.192
 Vibration     8          0.739              1.542              1.096
 Vibration     9          0.761              1.484              0.987
 Vibration    10          0.763              1.479              0.978
 Vibration    11          0.831              1.308              0.727
 Vibration    12          0.841              1.283              0.696
 Vibration    13          0.910              1.130              0.535
 Vibration    14          0.917              1.116              0.522
 Vibration    15          0.932              1.085              0.494
 Vibration    16          0.942              1.065              0.477

 Optimization completed.
    -- Stationary point found.
 Normal termination of Gaussian 16 at Thu Nov  4 09:38:22 2021.
