 Gaussian 16, Revision C.01,
 Gaussian 16:  ES64L-G16RevC.01  3-Jul-2019

 ---------------------------------------
 # opt freq b3lyp/gen nosymm pseudo=read
 ---------------------------------------

 -------------------
 Title Card Required
 -------------------
 Symbolic Z-matrix:
 Charge =  0 Multiplicity = 1

 SCF Done:  E(RB3LYP) =  -1842.48657372     A.U. after   24 cycles
 SCF Done:  E(RB3LYP) =  -1842.48709241     A.U. after   16 cycles
 SCF Done:  E(RB3LYP) =  -1842.48718487     A.U. after   16 cycles
 SCF Done:  E(RB3LYP) =  -1842.48726569     A.U. after   16 cycles
 SCF Done:  E(RB3LYP) =  -1842.48730691     A.U. after   15 cycles
 SCF Done:  E(RB3LYP) =  -1842.48732371     A.U. after   16 cycles
 SCF Done:  E(RB3LYP) =  -1842.48733186     A.U. after   15 cycles
 SCF Done:  E(RB3LYP) =  -1842.48733529     A.U. after   14 cycles
 SCF Done:  E(RB3LYP) =  -1842.48733599     A.U. after   13 cycles
 SCF Done:  E(RB3LYP) =  -1842.48733610     A.U. after   13 cycles
 Optimization completed.
    -- Stationary point found.
 Normal termination of Gaussian 16 at Mon Oct 24 16:27:54 2022.

 ------------------------------------------------------------------
 #N Geom=AllCheck Guess=TCheck SCRF=Check GenChk RB3LYP/ChkBas Freq
 ------------------------------------------------------------------

 Structure from the checkpoint file:  "MoSH2S2_MoCO_S-end.chk"
 -------------------
 Title Card Required
 -------------------
 Charge =  0 Multiplicity = 1

                          Input orientation:
 ---------------------------------------------------------------------
 Center     Atomic      Atomic             Coordinates (Angstroms)
 Number     Number       Type             X           Y           Z
 ---------------------------------------------------------------------
      1         42           0        0.008341    2.378765   11.292983
      2         16           0        2.054917    3.381257   10.960574
      3         16           0       -1.541519    4.043132   11.019693
      4         16           0       -0.320735    0.740101    9.737501
      5         16           0       -0.037226    1.266668   13.353811
      6          1           0       -0.953776    0.308496   13.097913
      7          1           0        2.831092    2.299448   10.710503
      8         42           0       -1.737615    2.514786    9.300354
      9          6           0       -0.630665    3.475591    8.041936
     10          8           0        0.102084    4.053331    7.347151
 ---------------------------------------------------------------------

 SCF Done:  E(RB3LYP) =  -1842.48733610     A.U. after    1 cycles

 Alpha  occ. eigenvalues --  -88.87825 -88.87806 -88.87686 -88.87263 -19.21685
 Alpha  occ. eigenvalues --  -10.29514  -7.95691  -7.95688  -7.95570  -7.95154
 Alpha  occ. eigenvalues --   -5.91937  -5.91685  -5.91654  -5.91582  -5.91573
 Alpha  occ. eigenvalues --   -5.91556  -5.91523  -5.91434  -5.91419  -5.91370
 Alpha  occ. eigenvalues --   -5.91038  -5.90831  -2.53578  -2.49396  -1.56863
 Alpha  occ. eigenvalues --   -1.55998  -1.55179  -1.52401  -1.51914  -1.51403
 Alpha  occ. eigenvalues --   -1.11575  -0.73442  -0.72754  -0.70673  -0.70142
 Alpha  occ. eigenvalues --   -0.55709  -0.44655  -0.44356  -0.44271  -0.43162
 Alpha  occ. eigenvalues --   -0.42823  -0.36901  -0.36446  -0.36271  -0.34750
 Alpha  occ. eigenvalues --   -0.33779  -0.33048  -0.31275  -0.30969  -0.29166
 Alpha  occ. eigenvalues --   -0.27709  -0.25384  -0.22179  -0.21921
 Alpha virt. eigenvalues --   -0.13329  -0.12714  -0.11903  -0.10491  -0.09187
 Alpha virt. eigenvalues --   -0.07550  -0.05710  -0.03314  -0.00485   0.00571
 Alpha virt. eigenvalues --    0.01053   0.01604   0.02970   0.03707   0.04554

 Mulliken charges:
               1
     1  Mo   0.169545
     2  S   -0.120219
     3  S   -0.097683
     4  S   -0.088535
     5  S   -0.156064
     6  H    0.098234
     7  H    0.095574
     8  Mo   0.130060
     9  C    0.222259
    10  O   -0.253172
 Sum of Mulliken charges =  -0.00000

 Dipole moment (field-independent basis, Debye):
    X=             -2.8706    Y=             -1.9115    Z=             -1.1566  Tot=              3.6375
 Quadrupole moment (field-independent basis, Debye-Ang):
   XX=            -97.2960   YY=           -121.7675   ZZ=           -138.1371
   XY=             -6.1855   XZ=            -24.3306   YZ=            -21.9796

  Exact polarizability:     166.347       2.886     155.693      15.657     -27.680     201.803
 Approx polarizability:     446.385     -11.238     391.230     104.266     -60.344     541.730

                      1                      2                      3
                      A                      A                      A
 Frequencies --     56.9604                66.4637                82.4978
 Red. masses --     10.8649                 6.6737                 8.8511
 Frc consts  --      0.0208                 0.0174                 0.0355
 IR Inten    --      0.8650                 0.3483                 1.9306

                      4                      5                      6
                      A                      A                      A
 Frequencies --     98.1124               106.2507               119.1933
 Red. masses --     14.3365                 9.3402                15.7062
 Frc consts  --      0.0813                 0.0621                 0.1315
 IR Inten    --      0.4762                 0.3295                 0.9917

                      7                      8                      9
                      A                      A                      A
 Frequencies --    164.0228               199.0845               213.4318
 Red. masses --      7.1369                 6.1652                 2.0213
 Frc consts  --      0.1131                 0.1440                 0.0542
 IR Inten    --      1.6204                 1.7153                 3.7312

                     10                     11                     12
                      A                      A                      A
 Frequencies --    290.7963               339.7499               354.0110
 Red. masses --     27.0578                20.4685                 1.9413
 Frc consts  --      1.3481                 1.3920                 0.1433
 IR Inten    --      9.1667                 2.2727                34.0247

                     13                     14                     15
                      A                      A                      A
 Frequencies --    360.6670               388.9084               427.6746
 Red. masses --      2.5420                23.5403                17.7074
 Frc consts  --      0.1948                 2.0978                 1.9082
 IR Inten    --      5.2529                41.6757                45.0344

                     16                     17                     18
                      A                      A                      A
 Frequencies --    442.9003               468.3886               475.1987
 Red. masses --     26.8720                11.4010                12.9913
 Frc consts  --      3.1057                 1.4737                 1.7284
 IR Inten    --      4.6496                 3.3262                 3.4494

                     19                     20                     21
                      A                      A                      A
 Frequencies --    504.4561               587.9109               649.4497
 Red. masses --     15.8778                 1.0927                 1.0771
 Frc consts  --      2.3806                 0.2225                 0.2677
 IR Inten    --     28.5779                 8.7643                 5.1746

                     22                     23                     24
                      A                      A                      A
 Frequencies --   2007.3033              2631.5425              2671.3848
 Red. masses --     13.3496                 1.0383                 1.0382
 Frc consts  --     31.6916                 4.2364                 4.3653
 IR Inten    --   1114.1729                 1.5738                 1.6681

 - Thermochemistry -
 -------------------
 Temperature   298.150 Kelvin.  Pressure   1.00000 Atm.
 Atom     1 has atomic number 42 and mass  97.90550

 Molecular mass:   353.70985 amu.
 Principal axes and moments of inertia in atomic units:
                           1         2         3
     Eigenvalues --  2142.491443957.837054490.15867
           X            0.43058   0.80408  -0.40994
           Y           -0.23479   0.53836   0.80935
           Z            0.87148  -0.25224   0.42060
 This molecule is an asymmetric top.
 Rotational symmetry number  1.
 Warning -- assumption of classical behavior for rotation
           may cause significant error
 Rotational temperatures (Kelvin)      0.04043     0.02188     0.01929
 Rotational constants (GHZ):           0.84236     0.45599     0.40193
 Zero-point vibrational energy      81982.2 (Joules/Mol)
                                   19.59422 (Kcal/Mol)
 Warning -- explicit consideration of  20 degrees of freedom as
           vibrations may cause significant error
 Vibrational temperatures:     81.95    95.63   118.70   141.16   152.87
          (Kelvin)            171.49   235.99   286.44   307.08   418.39
                              488.82   509.34   518.92   559.55   615.33
                              637.23   673.91   683.70   725.80   845.87
                              934.41  2888.06  3786.20  3843.53

 Zero-point correction=                           0.031225 (Hartree/Particle)
 Thermal correction to Energy=                    0.043728
 Thermal correction to Enthalpy=                  0.044672
 Thermal correction to Gibbs Free Energy=        -0.010127
 Sum of electronic and zero-point Energies=          -1842.456111
 Sum of electronic and thermal Energies=             -1842.443608
 Sum of electronic and thermal Enthalpies=           -1842.442664
 Sum of electronic and thermal Free Energies=        -1842.497463

                     E (Thermal)             CV                S
                      KCal/Mol        Cal/Mol-Kelvin    Cal/Mol-Kelvin
 Total                   27.440             39.797            115.334
 Electronic               0.000              0.000              0.000
 Translational            0.889              2.981             43.484
 Rotational               0.889              2.981             32.010
 Vibrational             25.662             33.835             39.841
 Vibration     1          0.596              1.975              4.560
 Vibration     2          0.598              1.970              4.255
 Vibration     3          0.600              1.961              3.831
 Vibration     4          0.604              1.950              3.491
 Vibration     5          0.605              1.944              3.336
 Vibration     6          0.609              1.933              3.113
 Vibration     7          0.623              1.887              2.503
 Vibration     8          0.637              1.841              2.142
 Vibration     9          0.644              1.820              2.014
 Vibration    10          0.687              1.691              1.469
 Vibration    11          0.720              1.596              1.213
 Vibration    12          0.730              1.567              1.148
 Vibration    13          0.735              1.553              1.119
 Vibration    14          0.757              1.494              1.004
 Vibration    15          0.789              1.410              0.866
 Vibration    16          0.803              1.377              0.818
 Vibration    17          0.826              1.320              0.742
 Vibration    18          0.832              1.305              0.723
 Vibration    19          0.860              1.240              0.647
 Vibration    20          0.945              1.058              0.471

                           ! Non-Optimized Parameters !
 Normal termination of Gaussian 16 at Mon Oct 24 16:28:09 2022.
