 Gaussian 16, Revision C.01,
 Gaussian 16:  ES64L-G16RevC.01  3-Jul-2019

 ---------------------------------------
 # opt freq b3lyp/gen nosymm pseudo=read
 ---------------------------------------

 -------------------
 Title Card Required
 -------------------
 Symbolic Z-matrix:
 Charge =  0 Multiplicity = 1

 SCF Done:  E(RB3LYP) =  -2241.88885225     A.U. after   23 cycles
 SCF Done:  E(RB3LYP) =  -2241.89361057     A.U. after   17 cycles
 SCF Done:  E(RB3LYP) =  -2241.89743944     A.U. after   18 cycles
 SCF Done:  E(RB3LYP) =  -2241.90033225     A.U. after   17 cycles
 SCF Done:  E(RB3LYP) =  -2241.90312472     A.U. after   18 cycles
 SCF Done:  E(RB3LYP) =  -2241.90587221     A.U. after   17 cycles
 SCF Done:  E(RB3LYP) =  -2241.90781186     A.U. after   17 cycles
 SCF Done:  E(RB3LYP) =  -2241.90880234     A.U. after   16 cycles
 SCF Done:  E(RB3LYP) =  -2241.90998543     A.U. after   17 cycles
 SCF Done:  E(RB3LYP) =  -2241.91037482     A.U. after   16 cycles
 SCF Done:  E(RB3LYP) =  -2241.91116987     A.U. after   15 cycles
 SCF Done:  E(RB3LYP) =  -2241.91123622     A.U. after   15 cycles
 SCF Done:  E(RB3LYP) =  -2241.91133034     A.U. after   15 cycles
 SCF Done:  E(RB3LYP) =  -2241.91135124     A.U. after   13 cycles
 SCF Done:  E(RB3LYP) =  -2241.91135808     A.U. after   13 cycles
 SCF Done:  E(RB3LYP) =  -2241.91136003     A.U. after   12 cycles
 SCF Done:  E(RB3LYP) =  -2241.91136099     A.U. after   12 cycles
 SCF Done:  E(RB3LYP) =  -2241.91136130     A.U. after   12 cycles
 SCF Done:  E(RB3LYP) =  -2241.91136141     A.U. after   11 cycles
 Optimization completed.
    -- Stationary point found.
 Normal termination of Gaussian 16 at Mon Oct 24 16:37:36 2022.

 ------------------------------------------------------------------
 #N Geom=AllCheck Guess=TCheck SCRF=Check GenChk RB3LYP/ChkBas Freq
 ------------------------------------------------------------------

 Structure from the checkpoint file:  "MoSH2S2_MoCO_S-end_H2S.chk"
 -------------------
 Title Card Required
 -------------------
 Charge =  0 Multiplicity = 1

                          Input orientation:
 ---------------------------------------------------------------------
 Center     Atomic      Atomic             Coordinates (Angstroms)
 Number     Number       Type             X           Y           Z
 ---------------------------------------------------------------------
      1         42           0        0.059350    2.297819   11.391313
      2         16           0        1.913891    3.636866   11.065816
      3         16           0       -1.743115    3.659752   11.090945
      4         16           0       -0.007960    0.672948    9.813035
      5         16           0        0.157463    1.118529   13.414595
      6          1           0       -0.375314   -0.063238   13.038567
      7          1           0        2.860428    2.692746   10.849007
      8         42           0       -1.758805    2.140300    9.354894
      9          6           0       -0.936615    3.307970    8.057405
     10          8           0       -0.374870    4.024811    7.330004
     11         16           0       -4.081588    2.647492    8.439750
     12          1           0       -4.051231    2.653919    7.089156
     13          1           0       -4.877947    1.554991    8.501552
 ---------------------------------------------------------------------

 SCF Done:  E(RB3LYP) =  -2241.91136141     A.U. after    1 cycles

 Alpha  occ. eigenvalues --  -88.94351 -88.86897 -88.86669 -88.86616 -88.86265
 Alpha  occ. eigenvalues --  -19.20489 -10.28424  -8.01949  -7.94738  -7.94543
 Alpha  occ. eigenvalues --   -7.94467  -7.94152  -5.98271  -5.98007  -5.97472
 Alpha  occ. eigenvalues --   -5.90799  -5.90757  -5.90673  -5.90616  -5.90470
 Alpha  occ. eigenvalues --   -5.90441  -5.90421  -5.90419  -5.90343  -5.90213
 Alpha  occ. eigenvalues --   -5.90037  -5.89829  -2.52219  -2.48278  -1.55243
 Alpha  occ. eigenvalues --   -1.54862  -1.53784  -1.51110  -1.50938  -1.50272
 Alpha  occ. eigenvalues --   -1.10389  -0.81217  -0.72411  -0.71746  -0.69594
 Alpha  occ. eigenvalues --   -0.69058  -0.54712  -0.50740  -0.45010  -0.43388
 Alpha  occ. eigenvalues --   -0.43218  -0.43049  -0.42092  -0.41831  -0.36510
 Alpha  occ. eigenvalues --   -0.35609  -0.34942  -0.34234  -0.33312  -0.32462
 Alpha  occ. eigenvalues --   -0.31750  -0.30540  -0.29971  -0.28217  -0.26415
 Alpha  occ. eigenvalues --   -0.23349  -0.21344  -0.20900
 Alpha virt. eigenvalues --   -0.12217  -0.11548  -0.10349  -0.08661  -0.06964
 Alpha virt. eigenvalues --   -0.05297  -0.04293  -0.03205  -0.01908   0.00025
 Alpha virt. eigenvalues --    0.01243   0.01468   0.01977   0.03390   0.03914

 Mulliken charges:
               1
     1  Mo   0.170447
     2  S   -0.144020
     3  S   -0.080658
     4  S   -0.108394
     5  S   -0.172828
     6  H    0.097549
     7  H    0.093332
     8  Mo  -0.042999
     9  C    0.240773
    10  O   -0.267671
    11  S   -0.029332
    12  H    0.128733
    13  H    0.115068
 Sum of Mulliken charges =  -0.00000

 Dipole moment (field-independent basis, Debye):
    X=             -4.8834    Y=             -2.9155    Z=             -2.8827  Tot=              6.3764
 Quadrupole moment (field-independent basis, Debye-Ang):
   XX=            -99.2463   YY=           -140.3679   ZZ=           -183.6083
   XY=             -5.1953   XZ=            -36.3740   YZ=            -34.1887

  Exact polarizability:     222.213       1.142     167.802      49.620     -27.747     224.696
 Approx polarizability:     504.861     -11.322     409.507     134.932     -56.318     555.339

                      1                      2                      3
                      A                      A                      A
 Frequencies --     42.9587                50.6110                70.8432
 Red. masses --     12.9380                11.8239                13.2894
 Frc consts  --      0.0141                 0.0178                 0.0393
 IR Inten    --      0.8654                 0.8908                 0.2923

                      4                      5                      6
                      A                      A                      A
 Frequencies --     82.9993                94.8212                97.8463
 Red. masses --      8.3898                13.0516                 9.3808
 Frc consts  --      0.0341                 0.0691                 0.0529
 IR Inten    --      1.0609                 0.9824                 1.2352

                      7                      8                      9
                      A                      A                      A
 Frequencies --    103.3745               118.5867               154.6105
 Red. masses --     10.1064                 9.8989                 3.6173
 Frc consts  --      0.0636                 0.0820                 0.0509
 IR Inten    --      0.3833                 0.4948                 1.0418

                     10                     11                     12
                      A                      A                      A
 Frequencies --    171.7963               197.9587               208.7209
 Red. masses --      1.1453                 9.2586                 2.5797
 Frc consts  --      0.0199                 0.2138                 0.0662
 IR Inten    --     16.5588                 1.2066                 6.1876

                     13                     14                     15
                      A                      A                      A
 Frequencies --    224.2463               304.1498               333.7488
 Red. masses --      4.0616                13.0729                 1.2329
 Frc consts  --      0.1203                 0.7125                 0.0809
 IR Inten    --      2.6650                21.1081                18.4183

                     16                     17                     18
                      A                      A                      A
 Frequencies --    352.0592               359.8486               386.7628
 Red. masses --     22.0274                14.8422                26.2870
 Frc consts  --      1.6086                 1.1324                 2.3168
 IR Inten    --      1.4552                18.5982                46.9930

                     19                     20                     21
                      A                      A                      A
 Frequencies --    430.0647               434.1056               443.5641
 Red. masses --     11.7303                 1.1250                27.4882
 Frc consts  --      1.2783                 0.1249                 3.1865
 IR Inten    --     44.8301                 8.2867                 2.9794

                     22                     23                     24
                      A                      A                      A
 Frequencies --    478.2977               490.9022               508.5914
 Red. masses --     10.2801                 7.3437                 9.9059
 Frc consts  --      1.3856                 1.0427                 1.5097
 IR Inten    --      3.9819                 0.4440                20.4039

                     25                     26                     27
                      A                      A                      A
 Frequencies --    596.9698               599.9445               635.7630
 Red. masses --      1.2022                 1.0804                 1.0901
 Frc consts  --      0.2524                 0.2291                 0.2596
 IR Inten    --     14.2289                 4.5702                 3.9052

                     28                     29                     30
                      A                      A                      A
 Frequencies --   1243.6614              1995.6117              2628.4744
 Red. masses --      1.0382                13.2928                 1.0372
 Frc consts  --      0.9461                31.1902                 4.2220
 IR Inten    --     89.0129              1033.6956                39.3205

                     31                     32                     33
                      A                      A                      A
 Frequencies --   2633.5754              2652.9387              2674.6241
 Red. masses --      1.0382                 1.0375                 1.0383
 Frc consts  --      4.2425                 4.3022                 4.3763
 IR Inten    --      1.6382                25.3396                 0.8759

 - Thermochemistry -
 -------------------
 Temperature   298.150 Kelvin.  Pressure   1.00000 Atm.
 Atom     1 has atomic number 42 and mass  97.90550

 Molecular mass:   387.69757 amu.
 Principal axes and moments of inertia in atomic units:
                           1         2         3
     Eigenvalues --  2416.391255840.524666554.41739
           X            0.68578   0.63562  -0.35452
           Y           -0.10554   0.56881   0.81567
           Z            0.72011  -0.52196   0.45716
 This molecule is an asymmetric top.
 Rotational symmetry number  1.
 Warning -- assumption of classical behavior for rotation
           may cause significant error
 Rotational temperatures (Kelvin)      0.03584     0.01483     0.01321
 Rotational constants (GHZ):           0.74687     0.30900     0.27535
 Zero-point vibrational energy     130411.1 (Joules/Mol)
                                   31.16900 (Kcal/Mol)
 Warning -- explicit consideration of  26 degrees of freedom as
           vibrations may cause significant error
 Vibrational temperatures:     61.81    72.82   101.93   119.42   136.43
          (Kelvin)            140.78   148.73   170.62   222.45   247.18
                              284.82   300.30   322.64   437.60   480.19
                              506.53   517.74   556.47   618.77   624.58
                              638.19   688.16   706.30   731.75   858.91
                              863.19   914.72  1789.35  2871.24  3781.79
                             3789.13  3816.99  3848.19

 Zero-point correction=                           0.049671 (Hartree/Particle)
 Thermal correction to Energy=                    0.065356
 Thermal correction to Enthalpy=                  0.066300
 Thermal correction to Gibbs Free Energy=         0.004033
 Sum of electronic and zero-point Energies=          -2241.861690
 Sum of electronic and thermal Energies=             -2241.846005
 Sum of electronic and thermal Enthalpies=           -2241.845061
 Sum of electronic and thermal Free Energies=        -2241.907328

                     E (Thermal)             CV                S
                      KCal/Mol        Cal/Mol-Kelvin    Cal/Mol-Kelvin
 Total                   41.012             49.975            131.051
 Electronic               0.000              0.000              0.000
 Translational            0.889              2.981             43.757
 Rotational               0.889              2.981             32.892
 Vibrational             39.234             44.014             54.402
 Vibration     1          0.595              1.980              5.118
 Vibration     2          0.595              1.977              4.793
 Vibration     3          0.598              1.968              4.130
 Vibration     4          0.600              1.961              3.819
 Vibration     5          0.603              1.953              3.558
 Vibration     6          0.603              1.951              3.497
 Vibration     7          0.605              1.947              3.390
 Vibration     8          0.609              1.934              3.123
 Vibration     9          0.620              1.898              2.615
 Vibration    10          0.626              1.877              2.416
 Vibration    11          0.637              1.843              2.152
 Vibration    12          0.642              1.827              2.055
 Vibration    13          0.649              1.804              1.925
 Vibration    14          0.695              1.666              1.394
 Vibration    15          0.715              1.608              1.242
 Vibration    16          0.729              1.571              1.157
 Vibration    17          0.734              1.555              1.123
 Vibration    18          0.755              1.498              1.013
 Vibration    19          0.791              1.405              0.858
 Vibration    20          0.795              1.396              0.845
 Vibration    21          0.803              1.375              0.815
 Vibration    22          0.835              1.298              0.715
 Vibration    23          0.847              1.270              0.681
 Vibration    24          0.864              1.231              0.637
 Vibration    25          0.955              1.038              0.455
 Vibration    26          0.958              1.032              0.450

 Optimization completed.
    -- Stationary point found.
 Normal termination of Gaussian 16 at Mon Oct 24 16:37:56 2022.
