 Gaussian 16, Revision C.01,
 Gaussian 16:  ES64L-G16RevC.01  3-Jul-2019

 ---------------------------------------
 # opt freq b3lyp/gen nosymm pseudo=read
 ---------------------------------------

 -------------------
 Title Card Required
 -------------------
 Symbolic Z-matrix:
 Charge =  0 Multiplicity = 1

 SCF Done:  E(RB3LYP) =  -2641.32663415     A.U. after   22 cycles
 SCF Done:  E(RB3LYP) =  -2641.32689247     A.U. after   15 cycles
 SCF Done:  E(RB3LYP) =  -2641.32746485     A.U. after   17 cycles
 SCF Done:  E(RB3LYP) =  -2641.32767627     A.U. after   14 cycles
 SCF Done:  E(RB3LYP) =  -2641.32760657     A.U. after   15 cycles
 SCF Done:  E(RB3LYP) =  -2641.32773416     A.U. after   16 cycles
 SCF Done:  E(RB3LYP) =  -2641.32778199     A.U. after   15 cycles
 SCF Done:  E(RB3LYP) =  -2641.32781286     A.U. after   13 cycles
 SCF Done:  E(RB3LYP) =  -2641.32783128     A.U. after   14 cycles
 SCF Done:  E(RB3LYP) =  -2641.32783555     A.U. after   12 cycles
 SCF Done:  E(RB3LYP) =  -2641.32784072     A.U. after   13 cycles
 SCF Done:  E(RB3LYP) =  -2641.32784092     A.U. after   11 cycles
 Optimization completed.
    -- Stationary point found.
 Normal termination of Gaussian 16 at Mon Oct 24 16:55:39 2022.

 ------------------------------------------------------------------
 #N Geom=AllCheck Guess=TCheck SCRF=Check GenChk RB3LYP/ChkBas Freq
 ------------------------------------------------------------------

 Structure from the checkpoint file:  "MoSH2S2_MoCO_S-end_H2S_2.chk"
 -------------------
 Title Card Required
 -------------------
 Charge =  0 Multiplicity = 1

                          Input orientation:
 ---------------------------------------------------------------------
 Center     Atomic      Atomic             Coordinates (Angstroms)
 Number     Number       Type             X           Y           Z
 ---------------------------------------------------------------------
      1         42           0        0.048689    2.281939   11.426530
      2         16           0        1.931743    3.534545   10.857708
      3         16           0       -1.690129    3.645327   11.023801
      4         16           0       -0.119014    0.413405   10.169907
      5         16           0       -0.287743    1.810887   13.694441
      6          1           0        0.700140    0.891116   13.823785
      7          1           0        2.773172    2.493696   10.648875
      8         42           0       -1.904349    1.819772    9.551460
      9          6           0       -1.033463    2.623036    8.030772
     10          8           0       -0.436506    3.116205    7.157210
     11         16           0       -4.193166    2.971744    8.957009
     12          1           0       -4.576868    2.447264    7.772589
     13          1           0       -5.185070    2.338466    9.625580
     14         16           0       -2.849349   -0.081184    8.060524
     15          1           0       -1.816680   -0.539570    7.322667
     16          1           0       -2.932409   -1.226377    8.775099
 ---------------------------------------------------------------------

 SCF Done:  E(RB3LYP) =  -2641.32784092     A.U. after    1 cycles

 Alpha  occ. eigenvalues --  -88.93235 -88.92841 -88.86182 -88.85614 -88.85535
 Alpha  occ. eigenvalues --  -88.85467 -19.19550 -10.27538  -8.00813  -8.00388
 Alpha  occ. eigenvalues --   -7.93960  -7.93451  -7.93395  -7.93321  -5.97140
 Alpha  occ. eigenvalues --   -5.96880  -5.96721  -5.96458  -5.96330  -5.95887
 Alpha  occ. eigenvalues --   -5.89996  -5.89924  -5.89807  -5.89674  -5.89613
 Alpha  occ. eigenvalues --   -5.89449  -5.89431  -5.89313  -5.89291  -5.89219
 Alpha  occ. eigenvalues --   -5.89048  -5.88963  -2.51601  -2.47028  -1.54565
 Alpha  occ. eigenvalues --   -1.54067  -1.53332  -1.49757  -1.49656  -1.49069
 Alpha  occ. eigenvalues --   -1.09444  -0.80297  -0.79538  -0.71526  -0.70880
 Alpha  occ. eigenvalues --   -0.68719  -0.68138  -0.53922  -0.49586  -0.49229
 Alpha  occ. eigenvalues --   -0.44061  -0.43601  -0.42470  -0.42210  -0.41897
 Alpha  occ. eigenvalues --   -0.41067  -0.40789  -0.36285  -0.34926  -0.33974
 Alpha  occ. eigenvalues --   -0.33289  -0.32287  -0.32118  -0.31276  -0.30588
 Alpha  occ. eigenvalues --   -0.29450  -0.28983  -0.28057  -0.24827  -0.22293
 Alpha  occ. eigenvalues --   -0.20519  -0.20195
 Alpha virt. eigenvalues --   -0.11339  -0.09591  -0.08731  -0.07922  -0.04825
 Alpha virt. eigenvalues --   -0.04520  -0.02556  -0.02295  -0.01747  -0.00818
 Alpha virt. eigenvalues --   -0.00085   0.00148   0.01979   0.02529   0.03080

 Mulliken charges:
               1
     1  Mo   0.180730
     2  S   -0.152946
     3  S   -0.064018
     4  S   -0.123256
     5  S   -0.158694
     6  H    0.076325
     7  H    0.083119
     8  Mo  -0.299541
     9  C    0.272531
    10  O   -0.279991
    11  S    0.021290
    12  H    0.115292
    13  H    0.106293
    14  S   -0.029819
    15  H    0.135039
    16  H    0.117647
 Sum of Mulliken charges =  -0.00000

 Dipole moment (field-independent basis, Debye):
    X=             -4.6827    Y=             -5.0628    Z=             -2.6431  Tot=              7.3855
 Quadrupole moment (field-independent basis, Debye-Ang):
   XX=           -109.9512   YY=           -156.6955   ZZ=           -195.8465
   XY=             -4.7358   XZ=            -35.8403   YZ=            -52.8764

  Exact polarizability:     240.306      16.033     188.024      46.015      10.375     249.320
 Approx polarizability:     526.938      24.331     434.531     103.188      30.569     587.745

                      1                      2                      3
                      A                      A                      A
 Frequencies --     48.4340                53.1219                72.0391
 Red. masses --     10.4186                 7.9330                 6.5779
 Frc consts  --      0.0144                 0.0132                 0.0201
 IR Inten    --      1.3754                 0.9784                 1.5917

                      4                      5                      6
                      A                      A                      A
 Frequencies --     81.3823                84.7589                96.9679
 Red. masses --      7.8151                11.2047                 6.5781
 Frc consts  --      0.0305                 0.0474                 0.0364
 IR Inten    --      1.1821                 1.6048                 1.7361

                      7                      8                      9
                      A                      A                      A
 Frequencies --    103.7568               111.0781               116.6152
 Red. masses --      4.6366                 1.5020                13.3454
 Frc consts  --      0.0294                 0.0109                 0.1069
 IR Inten    --      0.5783                 5.4492                 0.0922

                     10                     11                     12
                      A                      A                      A
 Frequencies --    130.4258               135.0413               150.6833
 Red. masses --      9.9098                 5.5658                 1.1462
 Frc consts  --      0.0993                 0.0598                 0.0153
 IR Inten    --      2.2632                 2.8867                18.7713

                     13                     14                     15
                      A                      A                      A
 Frequencies --    174.5134               190.0154               198.3766
 Red. masses --     12.9283                12.7710                 8.9891
 Frc consts  --      0.2320                 0.2717                 0.2084
 IR Inten    --      2.0587                 0.4451                 0.5438

                     16                     17                     18
                      A                      A                      A
 Frequencies --    222.2618               230.9846               303.7678
 Red. masses --      1.8292                 4.6718                14.2326
 Frc consts  --      0.0532                 0.1469                 0.7738
 IR Inten    --      4.9257                 5.1033                14.6238

                     19                     20                     21
                      A                      A                      A
 Frequencies --    318.3544               347.3641               352.5727
 Red. masses --      1.1832                24.3087                22.1974
 Frc consts  --      0.0707                 1.7281                 1.6257
 IR Inten    --     23.2925                 1.2245                23.5428

                     22                     23                     24
                      A                      A                      A
 Frequencies --    382.9406               431.1257               446.2370
 Red. masses --     19.9704                 7.2356                19.3031
 Frc consts  --      1.7254                 0.7924                 2.2647
 IR Inten    --     51.3974                35.3525                 0.4824

                     25                     26                     27
                      A                      A                      A
 Frequencies --    486.0745               491.0362               494.9091
 Red. masses --      1.8101                 2.7945                 3.1183
 Frc consts  --      0.2520                 0.3970                 0.4500
 IR Inten    --      2.5334                 0.9085                 0.4745

                     28                     29                     30
                      A                      A                      A
 Frequencies --    507.1824               527.1797               569.5469
 Red. masses --      3.7764                 1.4425                 1.1145
 Frc consts  --      0.5723                 0.2362                 0.2130
 IR Inten    --     14.2028                 4.6959                 1.9828

                     31                     32                     33
                      A                      A                      A
 Frequencies --    587.6562               610.8144               641.1378
 Red. masses --      1.3166                 1.0688                 1.1055
 Frc consts  --      0.2679                 0.2349                 0.2677
 IR Inten    --     27.5226                 4.3797                 6.5278

                     34                     35                     36
                      A                      A                      A
 Frequencies --   1226.5779              1234.8198              1984.8704
 Red. masses --      1.0374                 1.0375                13.2943
 Frc consts  --      0.9196                 0.9320                30.8590
 IR Inten    --     38.7460                47.0510               953.4116

                     37                     38                     39
                      A                      A                      A
 Frequencies --   2623.5386              2629.9307              2634.0483
 Red. masses --      1.0380                 1.0368                 1.0381
 Frc consts  --      4.2094                 4.2250                 4.2437
 IR Inten    --      4.8278                31.4759                 3.2289

                     40                     41                     42
                      A                      A                      A
 Frequencies --   2639.1243              2663.5822              2670.2953
 Red. masses --      1.0370                 1.0383                 1.0378
 Frc consts  --      4.2554                 4.3401                 4.3600
 IR Inten    --     21.6849                 7.0950                 7.1107

 - Thermochemistry -
 -------------------
 Temperature   298.150 Kelvin.  Pressure   1.00000 Atm.
 Atom     1 has atomic number 42 and mass  97.90550

 Molecular mass:   421.68530 amu.
 Principal axes and moments of inertia in atomic units:
                           1         2         3
     Eigenvalues --  3201.913357308.935447460.21500
           X            0.68729  -0.68784  -0.23348
           Y            0.17046  -0.15973   0.97233
           Z            0.70610   0.70807  -0.00747
 This molecule is an asymmetric top.
 Rotational symmetry number  1.
 Warning -- assumption of classical behavior for rotation
           may cause significant error
 Rotational temperatures (Kelvin)      0.02705     0.01185     0.01161
 Rotational constants (GHZ):           0.56364     0.24692     0.24192
 Zero-point vibrational energy     179470.6 (Joules/Mol)
                                   42.89451 (Kcal/Mol)
 Warning -- explicit consideration of  32 degrees of freedom as
           vibrations may cause significant error
 Vibrational temperatures:     69.69    76.43   103.65   117.09   121.95
          (Kelvin)            139.52   149.28   159.82   167.78   187.65
                              194.29   216.80   251.09   273.39   285.42
                              319.79   332.34   437.05   458.04   499.78
                              507.27   550.97   620.29   642.04   699.35
                              706.49   712.06   729.72   758.49   819.45
                              845.51   878.83   922.45  1764.77  1776.63
                             2855.79  3774.69  3783.88  3789.81  3797.11
                             3832.30  3841.96

 Zero-point correction=                           0.068357 (Hartree/Particle)
 Thermal correction to Energy=                    0.087031
 Thermal correction to Enthalpy=                  0.087975
 Thermal correction to Gibbs Free Energy=         0.019520
 Sum of electronic and zero-point Energies=          -2641.259484
 Sum of electronic and thermal Energies=             -2641.240810
 Sum of electronic and thermal Enthalpies=           -2641.239866
 Sum of electronic and thermal Free Energies=        -2641.308321

                     E (Thermal)             CV                S
                      KCal/Mol        Cal/Mol-Kelvin    Cal/Mol-Kelvin
 Total                   54.613             59.962            144.077
 Electronic               0.000              0.000              0.000
 Translational            0.889              2.981             44.008
 Rotational               0.889              2.981             33.523
 Vibrational             52.835             54.000             66.546
 Vibration     1          0.595              1.978              4.880
 Vibration     2          0.596              1.976              4.698
 Vibration     3          0.598              1.967              4.097
 Vibration     4          0.600              1.962              3.857
 Vibration     5          0.601              1.960              3.778
 Vibration     6          0.603              1.951              3.514
 Vibration     7          0.605              1.946              3.382
 Vibration     8          0.607              1.940              3.250
 Vibration     9          0.608              1.936              3.156
 Vibration    10          0.612              1.923              2.940
 Vibration    11          0.613              1.918              2.873
 Vibration    12          0.618              1.902              2.664
 Vibration    13          0.627              1.874              2.386
 Vibration    14          0.633              1.854              2.228
 Vibration    15          0.637              1.842              2.148
 Vibration    16          0.648              1.807              1.941
 Vibration    17          0.653              1.794              1.871
 Vibration    18          0.695              1.667              1.396
 Vibration    19          0.705              1.638              1.319
 Vibration    20          0.725              1.581              1.178
 Vibration    21          0.729              1.570              1.155
 Vibration    22          0.752              1.507              1.028
 Vibration    23          0.792              1.402              0.855
 Vibration    24          0.805              1.369              0.807
 Vibration    25          0.842              1.281              0.694
 Vibration    26          0.847              1.270              0.681
 Vibration    27          0.851              1.261              0.671
 Vibration    28          0.862              1.234              0.640
 Vibration    29          0.882              1.190              0.594
 Vibration    30          0.926              1.097              0.505
 Vibration    31          0.945              1.058              0.471
 Vibration    32          0.970              1.009              0.431

                           ! Non-Optimized Parameters !
 Normal termination of Gaussian 16 at Mon Oct 24 16:56:08 2022.
