 Gaussian 16, Revision C.01,
 Gaussian 16:  ES64L-G16RevC.01  3-Jul-2019

 -----------------------------------------------------------
 # opt=(calcfc,ts,noeigen) freq b3lyp/gen nosymm pseudo=read
 -----------------------------------------------------------

 -------------------
 Title Card Required
 -------------------
 Symbolic Z-matrix:
 Charge =  0 Multiplicity = 1

 SCF Done:  E(RB3LYP) =  -2641.30971869     A.U. after   21 cycles
 SCF Done:  E(RB3LYP) =  -2641.30712535     A.U. after   15 cycles
 SCF Done:  E(RB3LYP) =  -2641.30754089     A.U. after   15 cycles
 SCF Done:  E(RB3LYP) =  -2641.30739128     A.U. after   15 cycles
 SCF Done:  E(RB3LYP) =  -2641.30685373     A.U. after   15 cycles
 SCF Done:  E(RB3LYP) =  -2641.30739113     A.U. after   15 cycles
 SCF Done:  E(RB3LYP) =  -2641.30744808     A.U. after   15 cycles
 SCF Done:  E(RB3LYP) =  -2641.30745317     A.U. after   13 cycles
 SCF Done:  E(RB3LYP) =  -2641.30745422     A.U. after   12 cycles
 SCF Done:  E(RB3LYP) =  -2641.30745433     A.U. after   11 cycles
 SCF Done:  E(RB3LYP) =  -2641.30745437     A.U. after   11 cycles
 Optimization completed.
    -- Stationary point found.
 Normal termination of Gaussian 16 at Sat Jul  8 11:51:09 2023.

 ------------------------------------------------------------------
 #N Geom=AllCheck Guess=TCheck SCRF=Check GenChk RB3LYP/ChkBas Freq
 ------------------------------------------------------------------

 Structure from the checkpoint file:  "/localscratch/chegho/Gau-155345.chk"
 -------------------
 Title Card Required
 -------------------
 Charge =  0 Multiplicity = 1

                          Input orientation:
 ---------------------------------------------------------------------
 Center     Atomic      Atomic             Coordinates (Angstroms)
 Number     Number       Type             X           Y           Z
 ---------------------------------------------------------------------
      1         42           0        0.041577    2.171859   11.435298
      2         16           0        1.864424    3.525049   10.917358
      3         16           0       -1.717835    3.481636   10.956991
      4         16           0        0.023835    0.286389   10.238622
      5         16           0       -0.384902    1.780854   13.697832
      6          1           0        0.593092    0.858742   13.873560
      7          1           0        2.797504    2.542541   10.918925
      8         42           0       -1.829873    1.593538    9.499634
      9          6           0       -0.802645    2.437018    8.080003
     10          8           0       -0.163598    2.924768    7.242480
     11         16           0       -4.038223    2.776375    8.715358
     12          1           0       -4.269434    2.286879    7.478308
     13          1           0       -5.041272    2.048689    9.257613
     14         16           0       -2.887419   -0.607023    8.739146
     15          1           0       -3.837909   -0.228688    7.858275
     16          1           0       -1.918326    0.661645    7.988553
 ---------------------------------------------------------------------

 SCF Done:  E(RB3LYP) =  -2641.30745437     A.U. after    1 cycles

 Alpha  occ. eigenvalues --  -88.93764 -88.87760 -88.87722 -88.87573 -88.87263
 Alpha  occ. eigenvalues --  -88.87126 -19.21771 -10.30237  -8.01330  -7.95489
 Alpha  occ. eigenvalues --   -7.95385  -7.95315  -7.95130  -7.94986  -5.97656
 Alpha  occ. eigenvalues --   -5.97393  -5.96836  -5.91643  -5.91491  -5.91469
 Alpha  occ. eigenvalues --   -5.91402  -5.91401  -5.91394  -5.91365  -5.91353
 Alpha  occ. eigenvalues --   -5.91266  -5.91233  -5.91033  -5.90892  -5.90781
 Alpha  occ. eigenvalues --   -5.90777  -5.90625  -2.53830  -2.49492  -1.56608
 Alpha  occ. eigenvalues --   -1.56315  -1.55714  -1.52249  -1.52053  -1.51550
 Alpha  occ. eigenvalues --   -1.11932  -0.80725  -0.73534  -0.73164  -0.72552
 Alpha  occ. eigenvalues --   -0.70269  -0.69796  -0.56137  -0.50152  -0.46266
 Alpha  occ. eigenvalues --   -0.45012  -0.44781  -0.43790  -0.43173  -0.42633
 Alpha  occ. eigenvalues --   -0.42404  -0.39711  -0.36614  -0.35712  -0.35107
 Alpha  occ. eigenvalues --   -0.34749  -0.33727  -0.33372  -0.32370  -0.31200
 Alpha  occ. eigenvalues --   -0.30678  -0.29687  -0.28622  -0.26383  -0.24252
 Alpha  occ. eigenvalues --   -0.22742  -0.21709
 Alpha virt. eigenvalues --   -0.13317  -0.11346  -0.10592  -0.09713  -0.07017
 Alpha virt. eigenvalues --   -0.05561  -0.03852  -0.03438  -0.01995  -0.01325
 Alpha virt. eigenvalues --   -0.00174   0.00244   0.01091   0.01470   0.02909

 Mulliken charges:
               1
     1  Mo   0.156545
     2  S   -0.122853
     3  S   -0.034944
     4  S   -0.021050
     5  S   -0.125042
     6  H    0.084059
     7  H    0.087463
     8  Mo  -0.396332
     9  C    0.275941
    10  O   -0.258047
    11  S    0.044066
    12  H    0.116339
    13  H    0.122341
    14  S   -0.030376
    15  H    0.047901
    16  H    0.053990
 Sum of Mulliken charges =  -0.00000

 Dipole moment (field-independent basis, Debye):
    X=             -3.0193    Y=             -0.8378    Z=             -1.2492  Tot=              3.3732
 Quadrupole moment (field-independent basis, Debye-Ang):
   XX=           -111.0913   YY=           -153.1685   ZZ=           -164.0213
   XY=             -9.6950   XZ=            -15.2991   YZ=            -14.6618

  Exact polarizability:     243.766      31.805     201.287      50.789      17.659     246.090
 Approx polarizability:     526.379      64.612     496.701     102.988      73.444     578.206

 ******    1 imaginary frequencies (negative Signs) ******

                      1                      2                      3
                      A                      A                      A
 Frequencies --   -632.3048                49.6831                59.2383
 Red. masses --      1.1119                10.5956                 8.2065
 Frc consts  --      0.2619                 0.0154                 0.0170
 IR Inten    --   1173.9985                 0.9957                 3.5537

                      4                      5                      6
                      A                      A                      A
 Frequencies --     76.5498                85.3119                88.6697
 Red. masses --      5.3159                 5.7942                15.0803
 Frc consts  --      0.0184                 0.0248                 0.0699
 IR Inten    --      4.1647                 4.5426                 0.4684

                      7                      8                      9
                      A                      A                      A
 Frequencies --     96.3128               101.0953               112.1660
 Red. masses --      1.7269                 4.7495                 6.0436
 Frc consts  --      0.0094                 0.0286                 0.0448
 IR Inten    --      5.0963                 4.0745                 4.5205

                     10                     11                     12
                      A                      A                      A
 Frequencies --    125.7396               139.1943               142.6921
 Red. masses --     13.6618                13.8671                 6.7270
 Frc consts  --      0.1273                 0.1583                 0.0807
 IR Inten    --      1.9925                 2.9025                 1.8085

                     13                     14                     15
                      A                      A                      A
 Frequencies --    176.6834               196.1970               208.1696
 Red. masses --      8.3372                 8.2325                 6.0862
 Frc consts  --      0.1533                 0.1867                 0.1554
 IR Inten    --      2.4948                 3.7974                 0.8929

                     16                     17                     18
                      A                      A                      A
 Frequencies --    212.1423               253.2724               292.2543
 Red. masses --      1.6007                 1.2289                 7.6663
 Frc consts  --      0.0424                 0.0464                 0.3858
 IR Inten    --     13.1486                15.5874                18.2111

                     19                     20                     21
                      A                      A                      A
 Frequencies --    295.0625               311.0740               347.2851
 Red. masses --     18.7664                 1.2279                15.6568
 Frc consts  --      0.9626                 0.0700                 1.1126
 IR Inten    --     17.1607                15.0145                 7.2711

                     22                     23                     24
                      A                      A                      A
 Frequencies --    358.4234               384.6394               447.1022
 Red. masses --     22.2242                19.5480                18.0160
 Frc consts  --      1.6822                 1.7040                 2.1219
 IR Inten    --     20.6575                53.4207                13.5852

                     25                     26                     27
                      A                      A                      A
 Frequencies --    460.0621               483.9728               494.5469
 Red. masses --     11.9878                 6.0223                 5.2795
 Frc consts  --      1.4949                 0.8311                 0.7608
 IR Inten    --     15.2934                23.6700                 7.3512

                     28                     29                     30
                      A                      A                      A
 Frequencies --    531.6876               540.0063               570.8141
 Red. masses --      1.2843                 4.3147                 1.2187
 Frc consts  --      0.2139                 0.7413                 0.2339
 IR Inten    --     19.7176                18.0583                19.6631

                     31                     32                     33
                      A                      A                      A
 Frequencies --    594.6583               615.4346               643.8581
 Red. masses --      1.1710                 1.0692                 1.1161
 Frc consts  --      0.2440                 0.2386                 0.2726
 IR Inten    --     32.5604                 3.9021                11.8319

                     34                     35                     36
                      A                      A                      A
 Frequencies --    881.6025              1224.9261              1647.2287
 Red. masses --      1.0383                 1.0371                 1.0203
 Frc consts  --      0.4755                 0.9169                 1.6311
 IR Inten    --     28.2922                33.2625                27.8951

                     37                     38                     39
                      A                      A                      A
 Frequencies --   2032.0578              2629.5800              2633.3256
 Red. masses --     12.8208                 1.0380                 1.0380
 Frc consts  --     31.1917                 4.2288                 4.2410
 IR Inten    --    839.5902                 1.8701                 2.1422

                     40                     41                     42
                      A                      A                      A
 Frequencies --   2644.3459              2662.5017              2671.3129
 Red. masses --      1.0365                 1.0383                 1.0388
 Frc consts  --      4.2701                 4.3367                 4.3675
 IR Inten    --     12.3484                28.8490                 1.4732

 - Thermochemistry -
 -------------------
 Temperature   298.150 Kelvin.  Pressure   1.00000 Atm.
 Atom     1 has atomic number 42 and mass  97.90550

 Molecular mass:   421.68530 amu.
 Principal axes and moments of inertia in atomic units:
                           1         2         3
     Eigenvalues --  3301.616887013.130947358.51381
           X            0.69273   0.36493  -0.62206
           Y            0.21876   0.71557   0.66341
           Z            0.68722  -0.59564   0.41586
 This molecule is an asymmetric top.
 Rotational symmetry number  1.
 Warning -- assumption of classical behavior for rotation
           may cause significant error
 Rotational temperatures (Kelvin)      0.02623     0.01235     0.01177
 Rotational constants (GHZ):           0.54662     0.25734     0.24526
    1 imaginary frequencies ignored.
 Zero-point vibrational energy     170592.7 (Joules/Mol)
                                   40.77265 (Kcal/Mol)
 Warning -- explicit consideration of  31 degrees of freedom as
           vibrations may cause significant error
 Vibrational temperatures:     71.48    85.23   110.14   122.74   127.58
          (Kelvin)            138.57   145.45   161.38   180.91   200.27
                              205.30   254.21   282.28   299.51   305.23
                              364.40   420.49   424.53   447.57   499.67
                              515.69   553.41   643.28   661.93   696.33
                              711.54   764.98   776.95   821.27   855.58
                              885.47   926.37  1268.43  1762.40  2369.99
                             2923.68  3783.38  3788.77  3804.62  3830.75
                             3843.42

 Zero-point correction=                           0.064975 (Hartree/Particle)
 Thermal correction to Energy=                    0.083080
 Thermal correction to Enthalpy=                  0.084024
 Thermal correction to Gibbs Free Energy=         0.017030
 Sum of electronic and zero-point Energies=          -2641.242479
 Sum of electronic and thermal Energies=             -2641.224375
 Sum of electronic and thermal Enthalpies=           -2641.223431
 Sum of electronic and thermal Free Energies=        -2641.290425

                     E (Thermal)             CV                S
                      KCal/Mol        Cal/Mol-Kelvin    Cal/Mol-Kelvin
 Total                   52.133             58.622            141.001
 Electronic               0.000              0.000              0.000
 Translational            0.889              2.981             44.008
 Rotational               0.889              2.981             33.499
 Vibrational             50.356             52.660             63.494
 Vibration     1          0.595              1.978              4.830
 Vibration     2          0.597              1.974              4.482
 Vibration     3          0.599              1.965              3.977
 Vibration     4          0.601              1.959              3.765
 Vibration     5          0.601              1.957              3.689
 Vibration     6          0.603              1.952              3.528
 Vibration     7          0.604              1.948              3.433
 Vibration     8          0.607              1.939              3.231
 Vibration     9          0.611              1.927              3.010
 Vibration    10          0.615              1.914              2.815
 Vibration    11          0.616              1.911              2.767
 Vibration    12          0.628              1.871              2.363
 Vibration    13          0.636              1.845              2.168
 Vibration    14          0.641              1.828              2.060
 Vibration    15          0.643              1.822              2.025
 Vibration    16          0.664              1.757              1.708
 Vibration    17          0.688              1.688              1.461
 Vibration    18          0.689              1.683              1.445
 Vibration    19          0.700              1.653              1.357
 Vibration    20          0.725              1.581              1.178
 Vibration    21          0.733              1.558              1.129
 Vibration    22          0.754              1.503              1.021
 Vibration    23          0.806              1.367              0.805
 Vibration    24          0.818              1.339              0.766
 Vibration    25          0.840              1.286              0.699
 Vibration    26          0.850              1.262              0.672
 Vibration    27          0.887              1.180              0.583
 Vibration    28          0.895              1.162              0.565
 Vibration    29          0.927              1.094              0.503
 Vibration    30          0.952              1.043              0.459
 Vibration    31          0.975              0.999              0.424

                           ! Non-Optimized Parameters !
 Normal termination of Gaussian 16 at Sat Jul  8 11:52:34 2023.
