 Gaussian 16, Revision C.01,
 Gaussian 16:  ES64L-G16RevC.01  3-Jul-2019

 ---------------------------------------
 # opt freq b3lyp/gen nosymm pseudo=read
 ---------------------------------------

 -------------------
 Title Card Required
 -------------------
 Symbolic Z-matrix:
 Charge =  0 Multiplicity = 1

 SCF Done:  E(RB3LYP) =  -2641.31995699     A.U. after   21 cycles
 SCF Done:  E(RB3LYP) =  -2641.31996063     A.U. after   10 cycles
 Optimization completed.
    -- Stationary point found.
 Normal termination of Gaussian 16 at Fri Jul  7 11:25:43 2023.

 ------------------------------------------------------------------
 #N Geom=AllCheck Guess=TCheck SCRF=Check GenChk RB3LYP/ChkBas Freq
 ------------------------------------------------------------------

 Structure from the checkpoint file:  "/localscratch/chegho/Gau-131284.chk"
 -------------------
 Title Card Required
 -------------------
 Charge =  0 Multiplicity = 1

                          Input orientation:
 ---------------------------------------------------------------------
 Center     Atomic      Atomic             Coordinates (Angstroms)
 Number     Number       Type             X           Y           Z
 ---------------------------------------------------------------------
      1         42           0        0.008844    2.081477   11.339333
      2         16           0        1.759197    3.569531   10.958363
      3         16           0       -1.799774    3.345244   10.862950
      4         16           0        0.120036    0.276594   10.047233
      5         16           0       -0.458424    1.554706   13.561861
      6          1           0        0.481357    0.585413   13.677808
      7          1           0        2.760836    2.660257   11.039003
      8         42           0       -1.785771    1.528287    9.312258
      9          6           0       -0.639405    2.624752    8.057564
     10          8           0        0.001823    3.196050    7.288891
     11         16           0       -3.960591    2.701472    8.419356
     12          1           0       -4.250603    1.983483    7.314645
     13          1           0       -4.951961    2.127156    9.136365
     14         16           0       -2.993790   -0.550412    9.396069
     15          1           0       -4.183878   -0.250086    8.829022
     16          1           0       -1.678897    1.106348    7.657237
 ---------------------------------------------------------------------

 SCF Done:  E(RB3LYP) =  -2641.31996063     A.U. after    1 cycles

 Alpha  occ. eigenvalues --  -88.93745 -88.88252 -88.88176 -88.87725 -88.87544
 Alpha  occ. eigenvalues --  -88.85163 -19.24020 -10.32201  -8.01329  -7.96028
 Alpha  occ. eigenvalues --   -7.95932  -7.95586  -7.95410  -7.92824  -5.97649
 Alpha  occ. eigenvalues --   -5.97385  -5.96845  -5.92061  -5.92003  -5.91919
 Alpha  occ. eigenvalues --   -5.91915  -5.91866  -5.91857  -5.91810  -5.91684
 Alpha  occ. eigenvalues --   -5.91490  -5.91319  -5.91234  -5.91050  -5.89155
 Alpha  occ. eigenvalues --   -5.88760  -5.88430  -2.54348  -2.51096  -1.57160
 Alpha  occ. eigenvalues --   -1.56849  -1.56235  -1.53851  -1.53563  -1.52612
 Alpha  occ. eigenvalues --   -1.14418  -0.80723  -0.73678  -0.72983  -0.71191
 Alpha  occ. eigenvalues --   -0.70307  -0.70031  -0.57995  -0.50230  -0.48041
 Alpha  occ. eigenvalues --   -0.46739  -0.46616  -0.43866  -0.43128  -0.42884
 Alpha  occ. eigenvalues --   -0.40814  -0.38457  -0.36651  -0.36216  -0.35679
 Alpha  occ. eigenvalues --   -0.34165  -0.33771  -0.32943  -0.32393  -0.31760
 Alpha  occ. eigenvalues --   -0.30101  -0.29965  -0.28537  -0.26716  -0.25254
 Alpha  occ. eigenvalues --   -0.24218  -0.22719
 Alpha virt. eigenvalues --   -0.13884  -0.12167  -0.11060  -0.10428  -0.08427
 Alpha virt. eigenvalues --   -0.05961  -0.03757  -0.03101  -0.02382  -0.02018
 Alpha virt. eigenvalues --   -0.01562  -0.00260   0.01025   0.01606   0.03242

 Mulliken charges:
               1
     1  Mo   0.138150
     2  S   -0.116962
     3  S   -0.007540
     4  S    0.024540
     5  S   -0.114701
     6  H    0.088300
     7  H    0.087271
     8  Mo  -0.381981
     9  C    0.253136
    10  O   -0.227912
    11  S    0.052015
    12  H    0.129374
    13  H    0.126217
    14  S   -0.102825
    15  H    0.024577
    16  H    0.028341
 Sum of Mulliken charges =  -0.00000

 Dipole moment (field-independent basis, Debye):
    X=             -1.8328    Y=              0.2663    Z=             -1.2513  Tot=              2.2351
 Quadrupole moment (field-independent basis, Debye-Ang):
   XX=           -113.6356   YY=           -149.9823   ZZ=           -162.9462
   XY=            -10.1818   XZ=             -3.9870   YZ=             -3.9513

  Exact polarizability:     240.603      33.824     201.917      43.596       5.447     237.267
 Approx polarizability:     511.986      68.336     507.950      87.563      61.644     567.289

                      1                      2                      3
                      A                      A                      A
 Frequencies --     48.2690                62.5926                67.1305
 Red. masses --      9.9160                11.3690                12.6433
 Frc consts  --      0.0136                 0.0262                 0.0336
 IR Inten    --      0.5335                 2.6242                 0.5497

                      4                      5                      6
                      A                      A                      A
 Frequencies --     78.1814                81.1994                87.7720
 Red. masses --      1.3710                 5.9410                 4.6168
 Frc consts  --      0.0049                 0.0231                 0.0210
 IR Inten    --     10.9826                 2.4506                 2.0437

                      7                      8                      9
                      A                      A                      A
 Frequencies --    100.6085               107.7802               121.6253
 Red. masses --      9.0358                 9.5320                 8.6133
 Frc consts  --      0.0539                 0.0652                 0.0751
 IR Inten    --      0.6129                 0.3805                 0.7492

                     10                     11                     12
                      A                      A                      A
 Frequencies --    134.4995               154.0879               178.5141
 Red. masses --     13.7185                 9.6012                 8.8374
 Frc consts  --      0.1462                 0.1343                 0.1659
 IR Inten    --      0.9568                 0.9417                 1.4990

                     13                     14                     15
                      A                      A                      A
 Frequencies --    192.0606               206.5524               216.5564
 Red. masses --     10.6626                 1.5599                 8.6540
 Frc consts  --      0.2317                 0.0392                 0.2391
 IR Inten    --      0.2822                 7.4381                 0.6720

                     16                     17                     18
                      A                      A                      A
 Frequencies --    285.1545               311.2459               313.9649
 Red. masses --     19.0470                 2.0370                 1.6103
 Frc consts  --      0.9125                 0.1163                 0.0935
 IR Inten    --      6.7114                19.1061                14.5082

                     19                     20                     21
                      A                      A                      A
 Frequencies --    328.1783               347.0376               361.6209
 Red. masses --      1.6651                15.5963                17.9424
 Frc consts  --      0.1057                 1.1067                 1.3824
 IR Inten    --      9.3868                10.3604                20.2659

                     22                     23                     24
                      A                      A                      A
 Frequencies --    384.6496               404.7466               438.9410
 Red. masses --     18.4799                10.0207                11.2313
 Frc consts  --      1.6109                 0.9672                 1.2749
 IR Inten    --     46.8105                13.2766                11.3130

                     25                     26                     27
                      A                      A                      A
 Frequencies --    463.3666               477.3648               492.5615
 Red. masses --      9.5459                 4.8927                 4.6612
 Frc consts  --      1.2076                 0.6569                 0.6663
 IR Inten    --     15.9624                10.3747                 5.2948

                     28                     29                     30
                      A                      A                      A
 Frequencies --    520.3196               560.5090               612.4517
 Red. masses --      1.2001                 1.1143                 1.0832
 Frc consts  --      0.1914                 0.2063                 0.2394
 IR Inten    --      2.3351                 5.8960                 9.4717

                     31                     32                     33
                      A                      A                      A
 Frequencies --    619.9011               646.9303               700.3630
 Red. masses --      1.1020                 1.1261                 1.0748
 Frc consts  --      0.2495                 0.2777                 0.3106
 IR Inten    --      2.0809                14.7964                 9.8155

                     34                     35                     36
                      A                      A                      A
 Frequencies --    758.8037              1223.8272              1785.8609
 Red. masses --      1.1350                 1.0374                 1.0179
 Frc consts  --      0.3850                 0.9155                 1.9127
 IR Inten    --      2.3584                21.2421                63.9698

                     37                     38                     39
                      A                      A                      A
 Frequencies --   2081.2898              2632.8134              2636.0381
 Red. masses --     13.0602                 1.0380                 1.0380
 Frc consts  --     33.3323                 4.2394                 4.2496
 IR Inten    --    669.0812                 1.8029                 1.6852

                     40                     41                     42
                      A                      A                      A
 Frequencies --   2644.5297              2654.6225              2687.8435
 Red. masses --      1.0383                 1.0365                 1.0389
 Frc consts  --      4.2782                 4.3037                 4.4219
 IR Inten    --     45.4137                 8.7492                 0.9519

 - Thermochemistry -
 -------------------
 Temperature   298.150 Kelvin.  Pressure   1.00000 Atm.
 Atom     1 has atomic number 42 and mass  97.90550

 Molecular mass:   421.68530 amu.
 Principal axes and moments of inertia in atomic units:
                           1         2         3
     Eigenvalues --  3407.232826473.146637314.71289
           X            0.71447   0.38008  -0.58743
           Y            0.17941   0.71199   0.67889
           Z            0.67627  -0.59044   0.44050
 This molecule is an asymmetric top.
 Rotational symmetry number  1.
 Warning -- assumption of classical behavior for rotation
           may cause significant error
 Rotational temperatures (Kelvin)      0.02542     0.01338     0.01184
 Rotational constants (GHZ):           0.52968     0.27880     0.24673
 Zero-point vibrational energy     174728.7 (Joules/Mol)
                                   41.76117 (Kcal/Mol)
 Warning -- explicit consideration of  31 degrees of freedom as
           vibrations may cause significant error
 Vibrational temperatures:     69.45    90.06    96.59   112.49   116.83
          (Kelvin)            126.28   144.75   155.07   174.99   193.51
                              221.70   256.84   276.33   297.18   311.58
                              410.27   447.81   451.73   472.18   499.31
                              520.29   553.42   582.34   631.54   666.68
                              686.82   708.69   748.62   806.45   881.18
                              891.90   930.79  1007.67  1091.75  1760.81
                             2569.46  2994.51  3788.03  3792.67  3804.89
                             3819.41  3867.21

 Zero-point correction=                           0.066551 (Hartree/Particle)
 Thermal correction to Energy=                    0.084871
 Thermal correction to Enthalpy=                  0.085815
 Thermal correction to Gibbs Free Energy=         0.018323
 Sum of electronic and zero-point Energies=          -2641.253410
 Sum of electronic and thermal Energies=             -2641.235089
 Sum of electronic and thermal Enthalpies=           -2641.234145
 Sum of electronic and thermal Free Energies=        -2641.301638

                     E (Thermal)             CV                S
                      KCal/Mol        Cal/Mol-Kelvin    Cal/Mol-Kelvin
 Total                   53.258             59.800            142.051
 Electronic               0.000              0.000              0.000
 Translational            0.889              2.981             44.008
 Rotational               0.889              2.981             33.445
 Vibrational             51.480             53.839             64.599
 Vibration     1          0.595              1.978              4.887
 Vibration     2          0.597              1.972              4.374
 Vibration     3          0.598              1.970              4.236
 Vibration     4          0.599              1.964              3.936
 Vibration     5          0.600              1.962              3.862
 Vibration     6          0.601              1.958              3.709
 Vibration     7          0.604              1.949              3.442
 Vibration     8          0.606              1.943              3.309
 Vibration     9          0.609              1.931              3.074
 Vibration    10          0.613              1.919              2.881
 Vibration    11          0.620              1.898              2.621
 Vibration    12          0.629              1.869              2.344
 Vibration    13          0.634              1.851              2.208
 Vibration    14          0.641              1.831              2.074
 Vibration    15          0.645              1.816              1.988
 Vibration    16          0.683              1.701              1.503
 Vibration    17          0.700              1.652              1.356
 Vibration    18          0.702              1.647              1.341
 Vibration    19          0.711              1.619              1.269
 Vibration    20          0.725              1.581              1.180
 Vibration    21          0.736              1.551              1.115
 Vibration    22          0.754              1.503              1.021
 Vibration    23          0.770              1.460              0.945
 Vibration    24          0.799              1.385              0.830
 Vibration    25          0.821              1.331              0.756
 Vibration    26          0.834              1.300              0.717
 Vibration    27          0.848              1.267              0.677
 Vibration    28          0.875              1.205              0.609
 Vibration    29          0.916              1.117              0.523
 Vibration    30          0.972              1.005              0.429
 Vibration    31          0.980              0.990              0.417

                           ! Non-Optimized Parameters !
 Normal termination of Gaussian 16 at Fri Jul  7 11:26:52 2023.
