 Gaussian 16, Revision C.01,
 Gaussian 16:  ES64L-G16RevC.01  3-Jul-2019

 -----------------------------------------------------------
 # opt=(calcfc,ts,noeigen) freq b3lyp/gen nosymm pseudo=read
 -----------------------------------------------------------

 -------------------
 Title Card Required
 -------------------
 Symbolic Z-matrix:
 Charge =  0 Multiplicity = 1

 SCF Done:  E(RB3LYP) =  -2641.28764645     A.U. after   24 cycles
 SCF Done:  E(RB3LYP) =  -2641.28773574     A.U. after   18 cycles
 SCF Done:  E(RB3LYP) =  -2641.28584739     A.U. after   17 cycles
 SCF Done:  E(RB3LYP) =  -2641.28555712     A.U. after   17 cycles
 SCF Done:  E(RB3LYP) =  -2641.28628711     A.U. after   16 cycles
 SCF Done:  E(RB3LYP) =  -2641.28565700     A.U. after   17 cycles
 SCF Done:  E(RB3LYP) =  -2641.28526142     A.U. after   17 cycles
 SCF Done:  E(RB3LYP) =  -2641.28540976     A.U. after   16 cycles
 SCF Done:  E(RB3LYP) =  -2641.28714778     A.U. after   17 cycles
 SCF Done:  E(RB3LYP) =  -2641.28849873     A.U. after   16 cycles
 SCF Done:  E(RB3LYP) =  -2641.28959615     A.U. after   15 cycles
 SCF Done:  E(RB3LYP) =  -2641.28960537     A.U. after   17 cycles
 SCF Done:  E(RB3LYP) =  -2641.28983218     A.U. after   16 cycles
 SCF Done:  E(RB3LYP) =  -2641.28984404     A.U. after   15 cycles
 SCF Done:  E(RB3LYP) =  -2641.28987707     A.U. after   15 cycles
 SCF Done:  E(RB3LYP) =  -2641.28988159     A.U. after   14 cycles
 SCF Done:  E(RB3LYP) =  -2641.28988223     A.U. after   13 cycles
 SCF Done:  E(RB3LYP) =  -2641.28988214     A.U. after   13 cycles
 SCF Done:  E(RB3LYP) =  -2641.28988252     A.U. after   12 cycles
 Optimization completed.
    -- Stationary point found.
 Normal termination of Gaussian 16 at Fri Jul  7 18:00:06 2023.

 ------------------------------------------------------------------
 #N Geom=AllCheck Guess=TCheck SCRF=Check GenChk RB3LYP/ChkBas Freq
 ------------------------------------------------------------------

 Structure from the checkpoint file:  "/localscratch/chesha/scratch/Gau-46312.chk"
 -------------------
 Title Card Required
 -------------------
 Charge =  0 Multiplicity = 1

                          Input orientation:
 ---------------------------------------------------------------------
 Center     Atomic      Atomic             Coordinates (Angstroms)
 Number     Number       Type             X           Y           Z
 ---------------------------------------------------------------------
      1         42           0        0.028126    2.110508   11.261487
      2         16           0        1.718464    3.613233   10.787843
      3         16           0       -1.845991    3.380805   10.887991
      4         16           0        0.094308    0.349668    9.939364
      5         16           0        0.063037    1.418171   13.484115
      6          1           0       -0.429042    0.171555   13.316516
      7          1           0        2.770091    2.773512   10.944335
      8         42           0       -1.885362    1.659826    9.327694
      9          6           0       -0.725060    2.885052    8.078799
     10          8           0       -0.107973    3.539052    7.369635
     11         16           0       -4.076434    2.706983    8.347523
     12          1           0       -2.856749    1.585806    7.618884
     13          1           0       -4.943529    1.709028    8.625526
     14         16           0       -3.021676   -0.342432    9.892527
     15          1           0       -4.286552   -0.118617    9.464436
     16          1           0       -2.066659    1.098123    7.551284
 ---------------------------------------------------------------------

 SCF Done:  E(RB3LYP) =  -2641.28988252     A.U. after    1 cycles

 Alpha  occ. eigenvalues --  -88.89615 -88.89570 -88.89122 -88.89016 -88.86897
 Alpha  occ. eigenvalues --  -88.86205 -19.27091 -10.34183  -7.97486  -7.97308
 Alpha  occ. eigenvalues --   -7.96922  -7.96901  -7.94583  -7.93895  -5.93731
 Alpha  occ. eigenvalues --   -5.93393  -5.93351  -5.93268  -5.93162  -5.93153
 Alpha  occ. eigenvalues --   -5.93153  -5.92907  -5.92852  -5.92826  -5.92776
 Alpha  occ. eigenvalues --   -5.92595  -5.90876  -5.90510  -5.90230  -5.90211
 Alpha  occ. eigenvalues --   -5.89879  -5.89455  -2.55735  -2.53142  -1.58621
 Alpha  occ. eigenvalues --   -1.58435  -1.57496  -1.56241  -1.55443  -1.54087
 Alpha  occ. eigenvalues --   -1.17411  -0.75310  -0.74507  -0.73437  -0.71604
 Alpha  occ. eigenvalues --   -0.71485  -0.71203  -0.59960  -0.53080  -0.49078
 Alpha  occ. eigenvalues --   -0.48975  -0.47854  -0.44895  -0.44355  -0.42876
 Alpha  occ. eigenvalues --   -0.40240  -0.38059  -0.37654  -0.36937  -0.36384
 Alpha  occ. eigenvalues --   -0.35586  -0.34432  -0.33368  -0.32971  -0.31238
 Alpha  occ. eigenvalues --   -0.30288  -0.29825  -0.28162  -0.27408  -0.26581
 Alpha  occ. eigenvalues --   -0.24855  -0.23648
 Alpha virt. eigenvalues --   -0.15320  -0.14311  -0.13095  -0.11885  -0.10622
 Alpha virt. eigenvalues --   -0.06966  -0.05544  -0.04615  -0.03837  -0.03278
 Alpha virt. eigenvalues --   -0.00992  -0.00584   0.00124   0.02211   0.02991

 Mulliken charges:
               1
     1  Mo   0.159851
     2  S   -0.091687
     3  S    0.044572
     4  S    0.046563
     5  S   -0.129214
     6  H    0.117174
     7  H    0.101385
     8  Mo  -0.557255
     9  C    0.281346
    10  O   -0.195248
    11  S   -0.034720
    12  H    0.129249
    13  H    0.064418
    14  S   -0.052801
    15  H    0.052455
    16  H    0.063912
 Sum of Mulliken charges =   0.00000

 Dipole moment (field-independent basis, Debye):
    X=              1.6735    Y=             -1.1053    Z=              0.1123  Tot=              2.0087
 Quadrupole moment (field-independent basis, Debye-Ang):
   XX=           -136.2757   YY=           -149.4177   ZZ=           -137.6770
   XY=              7.6873   XZ=             17.6014   YZ=            -11.9907

  Exact polarizability:     268.709      28.755     204.983      61.336      -9.667     236.542
 Approx polarizability:     603.068      69.389     530.555     153.158      31.152     582.567

 ******    1 imaginary frequencies (negative Signs) ******

                      1                      2                      3
                      A                      A                      A
 Frequencies --   -575.1947                51.8985                59.9990
 Red. masses --      1.0638                13.6198                12.5996
 Frc consts  --      0.2074                 0.0216                 0.0267
 IR Inten    --    734.6442                 0.3214                 0.3462

                      4                      5                      6
                      A                      A                      A
 Frequencies --     67.3231                87.3008                91.5637
 Red. masses --     13.4563                16.0408                14.4805
 Frc consts  --      0.0359                 0.0720                 0.0715
 IR Inten    --      0.0874                 1.6914                 0.1881

                      7                      8                      9
                      A                      A                      A
 Frequencies --     96.9168               116.6940               131.0080
 Red. masses --     11.8250                 9.8813                17.2831
 Frc consts  --      0.0654                 0.0793                 0.1748
 IR Inten    --      0.8358                 1.6830                 0.5285

                     10                     11                     12
                      A                      A                      A
 Frequencies --    135.3446               154.2731               174.7493
 Red. masses --     13.7362                 8.2944                 3.5762
 Frc consts  --      0.1483                 0.1163                 0.0643
 IR Inten    --      1.1729                 3.6047                 5.1448

                     13                     14                     15
                      A                      A                      A
 Frequencies --    195.0443               215.4359               250.9177
 Red. masses --     17.2907                 1.6704                 5.0067
 Frc consts  --      0.3876                 0.0457                 0.1857
 IR Inten    --      5.2501                 3.8690                24.9921

                     16                     17                     18
                      A                      A                      A
 Frequencies --    263.8773               277.4691               333.1659
 Red. masses --      1.3434                15.1470                 9.0732
 Frc consts  --      0.0551                 0.6871                 0.5934
 IR Inten    --      6.4881                 9.7170                21.7624

                     19                     20                     21
                      A                      A                      A
 Frequencies --    341.7162               343.4906               355.4308
 Red. masses --      1.3235                 5.3080                 3.3603
 Frc consts  --      0.0911                 0.3690                 0.2501
 IR Inten    --     23.6157                 4.7739                24.0279

                     22                     23                     24
                      A                      A                      A
 Frequencies --    368.8551               375.5651               392.8991
 Red. masses --      9.1525                 3.2780                14.7965
 Frc consts  --      0.7337                 0.2724                 1.3458
 IR Inten    --     35.4407                 5.7901                45.8183

                     25                     26                     27
                      A                      A                      A
 Frequencies --    396.9900               449.7650               480.0735
 Red. masses --      5.6771                13.0930                14.0521
 Frc consts  --      0.5272                 1.5605                 1.9081
 IR Inten    --      9.5744                 3.8703                11.8586

                     28                     29                     30
                      A                      A                      A
 Frequencies --    490.5524               604.6302               636.1526
 Red. masses --      3.2422                 1.0828                 1.0898
 Frc consts  --      0.4597                 0.2332                 0.2598
 IR Inten    --      7.3119                 9.8941                 3.0782

                     31                     32                     33
                      A                      A                      A
 Frequencies --    640.7234               708.1088               733.6489
 Red. masses --      1.1245                 1.0758                 1.0562
 Frc consts  --      0.2720                 0.3178                 0.3350
 IR Inten    --     19.6295                 5.3273                11.7256

                     34                     35                     36
                      A                      A                      A
 Frequencies --    953.8922              1041.0943              1515.6559
 Red. masses --      1.0301                 1.0142                 1.0115
 Frc consts  --      0.5522                 0.6477                 1.3690
 IR Inten    --     17.1318                 0.8808               143.7855

                     37                     38                     39
                      A                      A                      A
 Frequencies --   1924.2985              2122.9644              2627.1625
 Red. masses --      1.0136                13.1125                 1.0380
 Frc consts  --      2.2115                34.8195                 4.2210
 IR Inten    --    375.4721               573.5974                28.8500

                     40                     41                     42
                      A                      A                      A
 Frequencies --   2636.1911              2656.8480              2674.7075
 Red. masses --      1.0381                 1.0388                 1.0382
 Frc consts  --      4.2506                 4.3202                 4.3759
 IR Inten    --      0.9425                 7.6170                 4.5980

 - Thermochemistry -
 -------------------
 Temperature   298.150 Kelvin.  Pressure   1.00000 Atm.
 Atom     1 has atomic number 42 and mass  97.90550

 Molecular mass:   421.68530 amu.
 Principal axes and moments of inertia in atomic units:
                           1         2         3
     Eigenvalues --  3344.049336268.214967442.94151
           X            0.75792   0.36282  -0.54215
           Y            0.10887   0.74906   0.65349
           Z            0.64320  -0.55432   0.52823
 This molecule is an asymmetric top.
 Rotational symmetry number  1.
 Warning -- assumption of classical behavior for rotation
           may cause significant error
 Rotational temperatures (Kelvin)      0.02590     0.01382     0.01164
 Rotational constants (GHZ):           0.53969     0.28792     0.24248
    1 imaginary frequencies ignored.
 Zero-point vibrational energy     168520.3 (Joules/Mol)
                                   40.27732 (Kcal/Mol)
 Warning -- explicit consideration of  28 degrees of freedom as
           vibrations may cause significant error
 Vibrational temperatures:     74.67    86.33    96.86   125.61   131.74
          (Kelvin)            139.44   167.90   188.49   194.73   221.96
                              251.43   280.63   309.96   361.01   379.66
                              399.22   479.35   491.65   494.21   511.39
                              530.70   540.35   565.29   571.18   647.11
                              690.72   705.80   869.93   915.28   921.86
                             1018.81  1055.56  1372.44  1497.90  2180.69
                             2768.64  3054.47  3779.90  3792.89  3822.61
                             3848.31

 Zero-point correction=                           0.064186 (Hartree/Particle)
 Thermal correction to Energy=                    0.081748
 Thermal correction to Enthalpy=                  0.082692
 Thermal correction to Gibbs Free Energy=         0.017208
 Sum of electronic and zero-point Energies=          -2641.225697
 Sum of electronic and thermal Energies=             -2641.208135
 Sum of electronic and thermal Enthalpies=           -2641.207191
 Sum of electronic and thermal Free Energies=        -2641.272675

                     E (Thermal)             CV                S
                      KCal/Mol        Cal/Mol-Kelvin    Cal/Mol-Kelvin
 Total                   51.297             57.842            137.823
 Electronic               0.000              0.000              0.000
 Translational            0.889              2.981             44.008
 Rotational               0.889              2.981             33.411
 Vibrational             49.520             51.880             60.404
 Vibration     1          0.596              1.977              4.744
 Vibration     2          0.597              1.973              4.457
 Vibration     3          0.598              1.970              4.230
 Vibration     4          0.601              1.958              3.720
 Vibration     5          0.602              1.955              3.626
 Vibration     6          0.603              1.951              3.515
 Vibration     7          0.608              1.936              3.154
 Vibration     8          0.612              1.922              2.931
 Vibration     9          0.613              1.918              2.869
 Vibration    10          0.620              1.898              2.619
 Vibration    11          0.627              1.874              2.384
 Vibration    12          0.636              1.847              2.179
 Vibration    13          0.645              1.817              1.997
 Vibration    14          0.663              1.761              1.724
 Vibration    15          0.670              1.739              1.636
 Vibration    16          0.678              1.715              1.549
 Vibration    17          0.715              1.609              1.245
 Vibration    18          0.721              1.592              1.204
 Vibration    19          0.722              1.589              1.196
 Vibration    20          0.731              1.564              1.142
 Vibration    21          0.741              1.536              1.085
 Vibration    22          0.746              1.522              1.057
 Vibration    23          0.760              1.485              0.989
 Vibration    24          0.763              1.477              0.974
 Vibration    25          0.809              1.361              0.796
 Vibration    26          0.836              1.294              0.710
 Vibration    27          0.846              1.271              0.682
 Vibration    28          0.963              1.022              0.442

 Optimization completed.
    -- Stationary point found.
 Normal termination of Gaussian 16 at Fri Jul  7 18:00:37 2023.
