 Gaussian 16, Revision C.01,
 Gaussian 16:  ES64L-G16RevC.01  3-Jul-2019

 ---------------------------------------
 # opt freq b3lyp/gen nosymm pseudo=read
 ---------------------------------------

 -------------------
 Title Card Required
 -------------------
 Symbolic Z-matrix:
 Charge =  0 Multiplicity = 1

 SCF Done:  E(RB3LYP) =  -2640.16717016     A.U. after   22 cycles
 SCF Done:  E(RB3LYP) =  -2640.16717052     A.U. after   11 cycles
 SCF Done:  E(RB3LYP) =  -2640.16717061     A.U. after   11 cycles
 SCF Done:  E(RB3LYP) =  -2640.16717077     A.U. after   10 cycles
 Optimization completed.
    -- Stationary point found.
 Normal termination of Gaussian 16 at Mon Oct 24 18:53:49 2022.

 ------------------------------------------------------------------
 #N Geom=AllCheck Guess=TCheck SCRF=Check GenChk RB3LYP/ChkBas Freq
 ------------------------------------------------------------------

 Structure from the checkpoint file:  "MoSH4S2_CO.chk"
 -------------------
 Title Card Required
 -------------------
 Charge =  0 Multiplicity = 1

                          Input orientation:
 ---------------------------------------------------------------------
 Center     Atomic      Atomic             Coordinates (Angstroms)
 Number     Number       Type             X           Y           Z
 ---------------------------------------------------------------------
      1         42           0        0.311575    2.140738   11.391379
      2         16           0        2.564808    1.737023   10.973395
      3         16           0       -0.051352    3.911763   10.046471
      4         16           0       -0.981118    0.427634   10.858638
      5         16           0       -0.213073    3.060443   13.463508
      6          1           0       -0.186247    1.890163   14.146826
      7          1           0        2.618050    0.550620   11.626659
      8         42           0       -1.505254    2.217303    9.323330
      9          6           0       -2.020391    3.690080    7.967018
     10          8           0       -2.299658    4.512604    7.219346
     11         16           0       -3.775012    2.291903    9.915158
     12          1           0       -3.873943    1.238682   10.756512
     13         16           0       -0.975880    0.963711    7.411023
     14          1           0       -0.728712   -0.254900    7.941106
 ---------------------------------------------------------------------

 SCF Done:  E(RB3LYP) =  -2640.16717077     A.U. after    1 cycles

 Alpha  occ. eigenvalues --  -88.90430 -88.89148 -88.88937 -88.88935 -88.87241
 Alpha  occ. eigenvalues --  -88.87240 -19.26192 -10.33328  -7.98222  -7.97003
 Alpha  occ. eigenvalues --   -7.96801  -7.96799  -7.94965  -7.94962  -5.94184
 Alpha  occ. eigenvalues --   -5.94182  -5.94130  -5.93068  -5.93066  -5.93047
 Alpha  occ. eigenvalues --   -5.92995  -5.92798  -5.92709  -5.92706  -5.92447
 Alpha  occ. eigenvalues --   -5.92445  -5.91229  -5.91228  -5.90844  -5.90841
 Alpha  occ. eigenvalues --   -5.90676  -5.90674  -2.56009  -2.52826  -1.58951
 Alpha  occ. eigenvalues --   -1.58379  -1.57966  -1.55731  -1.55072  -1.54273
 Alpha  occ. eigenvalues --   -1.16487  -0.75012  -0.74260  -0.73387  -0.72370
 Alpha  occ. eigenvalues --   -0.72089  -0.71378  -0.59007  -0.48412  -0.48373
 Alpha  occ. eigenvalues --   -0.48372  -0.44408  -0.44167  -0.42134  -0.41981
 Alpha  occ. eigenvalues --   -0.38917  -0.38066  -0.37041  -0.36591  -0.35314
 Alpha  occ. eigenvalues --   -0.35075  -0.33706  -0.32491  -0.32456  -0.31119
 Alpha  occ. eigenvalues --   -0.30927  -0.29499  -0.27809  -0.26345  -0.26252
 Alpha  occ. eigenvalues --   -0.23888
 Alpha virt. eigenvalues --   -0.15488  -0.13953  -0.12383  -0.11913  -0.09832
 Alpha virt. eigenvalues --   -0.08999  -0.07321  -0.03126  -0.03068  -0.02377
 Alpha virt. eigenvalues --   -0.01755   0.00168   0.01168   0.02614   0.03645

 Mulliken charges:
               1
     1  Mo   0.118882
     2  S   -0.105761
     3  S    0.009840
     4  S   -0.013618
     5  S   -0.105744
     6  H    0.090146
     7  H    0.090228
     8  Mo  -0.116270
     9  C    0.230771
    10  O   -0.199244
    11  S   -0.079732
    12  H    0.080032
    13  S   -0.079498
    14  H    0.079968
 Sum of Mulliken charges =  -0.00000

 Dipole moment (field-independent basis, Debye):
    X=              1.1930    Y=             -2.2381    Z=              2.5176  Tot=              3.5736
 Quadrupole moment (field-independent basis, Debye-Ang):
   XX=           -143.1912   YY=           -143.3175   ZZ=            -85.4857
   XY=              1.9715   XZ=             10.8483   YZ=            -23.7247

  Exact polarizability:     245.818     -10.629     181.504      36.972       7.395     255.027
 Approx polarizability:     591.103       2.501     459.491     114.002      17.827     605.274

                      1                      2                      3
                      A                      A                      A
 Frequencies --     40.6807                60.0279                76.6510
 Red. masses --     12.1719                16.0752                13.7131
 Frc consts  --      0.0119                 0.0341                 0.0475
 IR Inten    --      0.3400                 0.0865                 0.1503

                      4                      5                      6
                      A                      A                      A
 Frequencies --     84.4219                94.1752               101.0076
 Red. masses --     18.0699                 6.5449                16.6825
 Frc consts  --      0.0759                 0.0342                 0.1003
 IR Inten    --      0.2872                 0.7063                 0.1029

                      7                      8                      9
                      A                      A                      A
 Frequencies --    106.5742               119.5278               123.7518
 Red. masses --     12.7832                17.3533                 4.7846
 Frc consts  --      0.0855                 0.1461                 0.0432
 IR Inten    --      0.1713                 0.7592                 0.8053

                     10                     11                     12
                      A                      A                      A
 Frequencies --    145.5211               185.3518               201.7001
 Red. masses --     14.6222                 2.0730                 5.1528
 Frc consts  --      0.1824                 0.0420                 0.1235
 IR Inten    --      2.5324                 5.5377                 3.8619

                     13                     14                     15
                      A                      A                      A
 Frequencies --    202.3467               276.0493               301.0529
 Red. masses --      8.0262                34.3715                 1.1839
 Frc consts  --      0.1936                 1.5432                 0.0632
 IR Inten    --      1.8434                17.0425                16.7583

                     16                     17                     18
                      A                      A                      A
 Frequencies --    323.1667               360.2171               362.0087
 Red. masses --     13.0485                26.3969                 1.1208
 Frc consts  --      0.8029                 2.0181                 0.0865
 IR Inten    --     30.9789                 1.8951                 0.0558

                     19                     20                     21
                      A                      A                      A
 Frequencies --    363.1528               373.2735               387.5493
 Red. masses --     24.1927                14.8998                17.8262
 Frc consts  --      1.8798                 1.2232                 1.5775
 IR Inten    --      3.9268                24.2340                65.1213

                     22                     23                     24
                      A                      A                      A
 Frequencies --    391.8868               402.9201               454.5221
 Red. masses --      5.4101                 1.7098                 4.8721
 Frc consts  --      0.4895                 0.1635                 0.5930
 IR Inten    --     20.5247                18.4395                15.8037

                     25                     26                     27
                      A                      A                      A
 Frequencies --    469.3690               485.1329               488.2612
 Red. masses --      7.0495                11.1111                12.4045
 Frc consts  --      0.9150                 1.5407                 1.7423
 IR Inten    --     26.6096                10.3962                 9.8796

                     28                     29                     30
                      A                      A                      A
 Frequencies --    614.6572               641.8971               732.0461
 Red. masses --      1.0645                 1.1180                 1.0456
 Frc consts  --      0.2370                 0.2714                 0.3302
 IR Inten    --      2.9450                14.2528                 6.8267

                     31                     32                     33
                      A                      A                      A
 Frequencies --    734.6934              2119.2619              2631.1590
 Red. masses --      1.0562                13.3962                 1.0380
 Frc consts  --      0.3359                35.4489                 4.2341
 IR Inten    --     21.2031               959.5537                 2.1673

                     34                     35                     36
                      A                      A                      A
 Frequencies --   2632.7097              2650.5080              2651.5834
 Red. masses --      1.0380                 1.0387                 1.0388
 Frc consts  --      4.2388                 4.2994                 4.3031
 IR Inten    --      1.3014                 3.4067                10.7733

 - Thermochemistry -
 -------------------
 Temperature   298.150 Kelvin.  Pressure   1.00000 Atm.
 Atom     1 has atomic number 42 and mass  97.90550

 Molecular mass:   419.66965 amu.
 Principal axes and moments of inertia in atomic units:
                           1         2         3
     Eigenvalues --  3206.144496620.076897144.61429
           X            0.65161   0.70185   0.28777
           Y           -0.05553  -0.33422   0.94086
           Z            0.75652  -0.62905  -0.17881
 This molecule is an asymmetric top.
 Rotational symmetry number  1.
 Warning -- assumption of classical behavior for rotation
           may cause significant error
 Rotational temperatures (Kelvin)      0.02701     0.01308     0.01212
 Rotational constants (GHZ):           0.56290     0.27262     0.25260
 Zero-point vibrational energy     133914.9 (Joules/Mol)
                                   32.00642 (Kcal/Mol)
 Warning -- explicit consideration of  28 degrees of freedom as
           vibrations may cause significant error
 Vibrational temperatures:     58.53    86.37   110.28   121.46   135.50
          (Kelvin)            145.33   153.34   171.97   178.05   209.37
                              266.68   290.20   291.13   397.17   433.15
                              464.96   518.27   520.85   522.50   537.06
                              557.60   563.84   579.71   653.96   675.32
                              698.00   702.50   884.35   923.55  1053.25
                             1057.06  3049.15  3785.65  3787.88  3813.49
                             3815.04

 Zero-point correction=                           0.051005 (Hartree/Particle)
 Thermal correction to Energy=                    0.068047
 Thermal correction to Enthalpy=                  0.068991
 Thermal correction to Gibbs Free Energy=         0.004175
 Sum of electronic and zero-point Energies=          -2640.116165
 Sum of electronic and thermal Energies=             -2640.099124
 Sum of electronic and thermal Enthalpies=           -2640.098180
 Sum of electronic and thermal Free Energies=        -2640.162996

                     E (Thermal)             CV                S
                      KCal/Mol        Cal/Mol-Kelvin    Cal/Mol-Kelvin
 Total                   42.700             55.354            136.417
 Electronic               0.000              0.000              0.000
 Translational            0.889              2.981             43.993
 Rotational               0.889              2.981             33.383
 Vibrational             40.922             49.393             59.041
 Vibration     1          0.594              1.981              5.226
 Vibration     2          0.597              1.973              4.456
 Vibration     3          0.599              1.965              3.975
 Vibration     4          0.601              1.960              3.785
 Vibration     5          0.603              1.953              3.571
 Vibration     6          0.604              1.948              3.435
 Vibration     7          0.605              1.944              3.330
 Vibration     8          0.609              1.933              3.108
 Vibration     9          0.610              1.929              3.041
 Vibration    10          0.617              1.908              2.730
 Vibration    11          0.631              1.860              2.274
 Vibration    12          0.639              1.837              2.118
 Vibration    13          0.639              1.837              2.112
 Vibration    14          0.678              1.718              1.558
 Vibration    15          0.693              1.672              1.411
 Vibration    16          0.708              1.629              1.294
 Vibration    17          0.735              1.554              1.121
 Vibration    18          0.736              1.551              1.113
 Vibration    19          0.737              1.548              1.109
 Vibration    20          0.745              1.527              1.066
 Vibration    21          0.756              1.497              1.010
 Vibration    22          0.759              1.488              0.993
 Vibration    23          0.768              1.464              0.952
 Vibration    24          0.813              1.351              0.782
 Vibration    25          0.826              1.318              0.739
 Vibration    26          0.841              1.283              0.696
 Vibration    27          0.844              1.276              0.688
 Vibration    28          0.974              1.001              0.425

                           ! Non-Optimized Parameters !
 Normal termination of Gaussian 16 at Mon Oct 24 18:54:15 2022.
