 Gaussian 16, Revision C.01,
 Gaussian 16:  ES64L-G16RevC.01  3-Jul-2019

 ---------------------------------------
 # opt freq b3lyp/gen nosymm pseudo=read
 ---------------------------------------

 -------------------
 Title Card Required
 -------------------
 Symbolic Z-matrix:
 Charge =  0 Multiplicity = 1

 SCF Done:  E(RB3LYP) =  -2526.80401213     A.U. after   21 cycles
 SCF Done:  E(RB3LYP) =  -2526.81281309     A.U. after   16 cycles
 SCF Done:  E(RB3LYP) =  -2526.81705143     A.U. after   16 cycles
 SCF Done:  E(RB3LYP) =  -2526.81799248     A.U. after   16 cycles
 SCF Done:  E(RB3LYP) =  -2526.81851804     A.U. after   15 cycles
 SCF Done:  E(RB3LYP) =  -2526.81867124     A.U. after   14 cycles
 SCF Done:  E(RB3LYP) =  -2526.81877147     A.U. after   14 cycles
 SCF Done:  E(RB3LYP) =  -2526.81880320     A.U. after   14 cycles
 SCF Done:  E(RB3LYP) =  -2526.81885920     A.U. after   14 cycles
 SCF Done:  E(RB3LYP) =  -2526.81888947     A.U. after   14 cycles
 SCF Done:  E(RB3LYP) =  -2526.81889394     A.U. after   12 cycles
 SCF Done:  E(RB3LYP) =  -2526.81889448     A.U. after   11 cycles
 Optimization completed.
    -- Stationary point found.
 Normal termination of Gaussian 16 at Sun Jan  2 12:16:49 2022.

 ------------------------------------------------------------------
 #N Geom=AllCheck Guess=TCheck SCRF=Check GenChk RB3LYP/ChkBas Freq
 ------------------------------------------------------------------

 Structure from the checkpoint file:  "Mo2_S2_SH_4.chk"
 -------------------
 Title Card Required
 -------------------
 Charge =  0 Multiplicity = 1

                          Input orientation:
 ---------------------------------------------------------------------
 Center     Atomic      Atomic             Coordinates (Angstroms)
 Number     Number       Type             X           Y           Z
 ---------------------------------------------------------------------
      1         42           0       -0.293443    1.818957   10.937597
      2         16           0        1.261578    3.506351   10.608360
      3         16           0       -2.112734    2.857406   11.787222
      4         16           0       -1.063968    0.932467    8.984745
      5         16           0        0.259985    0.203289   12.504979
      6          1           0        1.025621   -0.577883   11.702535
      7          1           0        2.060546    2.851519    9.729103
      8         42           0       -2.889600    1.983684    9.852845
      9         16           0       -4.559342    0.507548   10.490717
     10          1           0       -4.607644   -0.222261    9.348221
     11         16           0       -3.556035    3.812572    8.593768
     12          1           0       -3.557856    3.209545    7.378643
 ---------------------------------------------------------------------

 SCF Done:  E(RB3LYP) =  -2526.81889448     A.U. after    1 cycles

 Alpha  occ. eigenvalues --  -88.90028 -88.89096 -88.87775 -88.87775 -88.87773
 Alpha  occ. eigenvalues --  -88.87773  -7.97898  -7.97022  -7.95640  -7.95639
 Alpha  occ. eigenvalues --   -7.95637  -7.95637  -5.93923  -5.93816  -5.93771
 Alpha  occ. eigenvalues --   -5.92987  -5.92965  -5.92925  -5.91913  -5.91911
 Alpha  occ. eigenvalues --   -5.91911  -5.91909  -5.91530  -5.91528  -5.91528
 Alpha  occ. eigenvalues --   -5.91525  -5.91302  -5.91301  -5.91300  -5.91299
 Alpha  occ. eigenvalues --   -2.53793  -2.53597  -1.57923  -1.56113  -1.56042
 Alpha  occ. eigenvalues --   -1.55889  -1.55313  -1.54965  -0.74122  -0.73562
 Alpha  occ. eigenvalues --   -0.73082  -0.73055  -0.72237  -0.71777  -0.43425
 Alpha  occ. eigenvalues --   -0.43211  -0.43124  -0.42759  -0.39163  -0.38465
 Alpha  occ. eigenvalues --   -0.37331  -0.37015  -0.34213  -0.33980  -0.33773
 Alpha  occ. eigenvalues --   -0.33535  -0.33517  -0.31052  -0.30974  -0.30513
 Alpha  occ. eigenvalues --   -0.27518  -0.26432  -0.24752  -0.22732
 Alpha virt. eigenvalues --   -0.14316  -0.13408  -0.11780  -0.10891  -0.10408
 Alpha virt. eigenvalues --   -0.08874  -0.07290  -0.05206  -0.01741  -0.01674
 Alpha virt. eigenvalues --    0.00647   0.00944   0.01978   0.04145   0.05018

 Mulliken charges:
               1
     1  Mo   0.135257
     2  S   -0.143512
     3  S    0.017997
     4  S   -0.051913
     5  S   -0.143584
     6  H    0.084390
     7  H    0.084465
     8  Mo   0.135216
     9  S   -0.143675
    10  H    0.084414
    11  S   -0.143558
    12  H    0.084502
 Sum of Mulliken charges =   0.00000

 Dipole moment (field-independent basis, Debye):
    X=              0.9988    Y=             -1.8254    Z=             -2.6614  Tot=              3.3783
 Quadrupole moment (field-independent basis, Debye-Ang):
   XX=           -126.8989   YY=           -135.9037   ZZ=           -180.0210
   XY=              2.8739   XZ=             15.4525   YZ=            -20.2955

  Exact polarizability:     256.042       7.530     196.704      34.388     -29.090     183.295
 Approx polarizability:     637.447       3.670     445.793      93.635     -43.637     445.854

                      1                      2                      3
                      A                      A                      A
 Frequencies --     44.6973                58.1369                68.7982
 Red. masses --      4.2992                 7.6792                10.1501
 Frc consts  --      0.0051                 0.0153                 0.0283
 IR Inten    --      2.5408                 0.0004                 3.2259

                      4                      5                      6
                      A                      A                      A
 Frequencies --     74.1401                81.8375                92.8405
 Red. masses --     10.4815                 2.7295                14.3335
 Frc consts  --      0.0339                 0.0108                 0.0728
 IR Inten    --      0.0347                 1.8626                 0.0063

                      7                      8                      9
                      A                      A                      A
 Frequencies --     93.6982               116.1665               164.3175
 Red. masses --     13.8873                15.8398                 1.1883
 Frc consts  --      0.0718                 0.1259                 0.0189
 IR Inten    --      0.0099                 0.6525                 0.2281

                     10                     11                     12
                      A                      A                      A
 Frequencies --    177.2100               192.7332               206.4098
 Red. masses --      2.1419                17.0624                18.9515
 Frc consts  --      0.0396                 0.3734                 0.4757
 IR Inten    --      6.1109                 0.2451                 0.1954

                     13                     14                     15
                      A                      A                      A
 Frequencies --    322.8368               329.2339               340.3600
 Red. masses --      1.2419                 7.4250                 1.1264
 Frc consts  --      0.0763                 0.4742                 0.0769
 IR Inten    --     51.7862                 5.6272                 7.2851

                     16                     17                     18
                      A                      A                      A
 Frequencies --    364.6935               367.9406               375.8726
 Red. masses --     31.0947                24.1938                25.3502
 Frc consts  --      2.4366                 1.9298                 2.1101
 IR Inten    --      4.0693                 0.0217                13.0433

                     19                     20                     21
                      A                      A                      A
 Frequencies --    389.5972               390.3354               458.0003
 Red. masses --     23.1275                23.7319                29.8323
 Frc consts  --      2.0683                 2.1304                 3.6870
 IR Inten    --      0.0051               114.3962                 0.0273

                     22                     23                     24
                      A                      A                      A
 Frequencies --    461.4755               596.2164               600.7649
 Red. masses --     10.6345                 1.0547                 1.0540
 Frc consts  --      1.3343                 0.2209                 0.2241
 IR Inten    --     22.4132                 0.1740                 0.0051

                     25                     26                     27
                      A                      A                      A
 Frequencies --    624.0566               641.4026              2615.5950
 Red. masses --      1.0688                 1.1328                 1.0381
 Frc consts  --      0.2453                 0.2746                 4.1845
 IR Inten    --      2.7289                11.4364                 0.4210

                     28                     29                     30
                      A                      A                      A
 Frequencies --   2615.6402              2617.2813              2617.7371
 Red. masses --      1.0381                 1.0380                 1.0380
 Frc consts  --      4.1846                 4.1894                 4.1907
 IR Inten    --      0.6706                 6.9021                 6.5147

 - Thermochemistry -
 -------------------
 Temperature   298.150 Kelvin.  Pressure   1.00000 Atm.
 Atom     1 has atomic number 42 and mass  97.90550

 Molecular mass:   391.67473 amu.
 Principal axes and moments of inertia in atomic units:
                           1         2         3
     Eigenvalues --  2585.729705401.339286479.95551
           X            0.92106   0.25450  -0.29474
           Y           -0.05833   0.83850   0.54177
           Z            0.38502  -0.48181   0.78716
 This molecule is an asymmetric top.
 Rotational symmetry number  1.
 Warning -- assumption of classical behavior for rotation
           may cause significant error
 Rotational temperatures (Kelvin)      0.03350     0.01604     0.01337
 Rotational constants (GHZ):           0.69796     0.33413     0.27851
 Zero-point vibrational energy     108262.2 (Joules/Mol)
                                   25.87529 (Kcal/Mol)
 Warning -- explicit consideration of  24 degrees of freedom as
           vibrations may cause significant error
 Vibrational temperatures:     64.31    83.65    98.99   106.67   117.75
          (Kelvin)            133.58   134.81   167.14   236.42   254.97
                              277.30   296.98   464.49   473.69   489.70
                              524.71   529.38   540.80   560.54   561.61
                              658.96   663.96   857.82   864.37   897.88
                              922.84  3763.26  3763.32  3765.68  3766.34

 Zero-point correction=                           0.041235 (Hartree/Particle)
 Thermal correction to Energy=                    0.056549
 Thermal correction to Enthalpy=                  0.057493
 Thermal correction to Gibbs Free Energy=        -0.004283
 Sum of electronic and zero-point Energies=          -2526.777660
 Sum of electronic and thermal Energies=             -2526.762346
 Sum of electronic and thermal Enthalpies=           -2526.761402
 Sum of electronic and thermal Free Energies=        -2526.823177

                     E (Thermal)             CV                S
                      KCal/Mol        Cal/Mol-Kelvin    Cal/Mol-Kelvin
 Total                   35.485             48.202            130.017
 Electronic               0.000              0.000              0.000
 Translational            0.889              2.981             43.788
 Rotational               0.889              2.981             32.870
 Vibrational             33.707             42.241             53.359
 Vibration     1          0.595              1.980              5.039
 Vibration     2          0.596              1.974              4.519
 Vibration     3          0.598              1.969              4.187
 Vibration     4          0.599              1.966              4.040
 Vibration     5          0.600              1.962              3.846
 Vibration     6          0.602              1.954              3.599
 Vibration     7          0.603              1.954              3.581
 Vibration     8          0.608              1.936              3.163
 Vibration     9          0.623              1.886              2.499
 Vibration    10          0.628              1.870              2.358
 Vibration    11          0.635              1.850              2.201
 Vibration    12          0.641              1.831              2.075
 Vibration    13          0.708              1.630              1.296
 Vibration    14          0.712              1.617              1.264
 Vibration    15          0.720              1.595              1.210
 Vibration    16          0.738              1.545              1.102
 Vibration    17          0.741              1.538              1.088
 Vibration    18          0.747              1.522              1.056
 Vibration    19          0.758              1.492              1.002
 Vibration    20          0.758              1.491              0.999
 Vibration    21          0.816              1.343              0.772
 Vibration    22          0.819              1.336              0.762
 Vibration    23          0.954              1.040              0.456
 Vibration    24          0.959              1.030              0.448

                           ! Non-Optimized Parameters !
 Normal termination of Gaussian 16 at Sun Jan  2 12:17:40 2022.
