 Gaussian 16, Revision C.01,
 Gaussian 16:  ES64L-G16RevC.01  3-Jul-2019

 ---------------------------------------
 # opt freq b3lyp/gen nosymm pseudo=read
 ---------------------------------------

 -------------------
 Title Card Required
 -------------------
 Symbolic Z-matrix:
 Charge =  0 Multiplicity = 1

 SCF Done:  E(RB3LYP) =  -2934.42840270     A.U. after   29 cycles
 SCF Done:  E(RB3LYP) =  -2934.42972789     A.U. after   19 cycles
 SCF Done:  E(RB3LYP) =  -2934.43006522     A.U. after   18 cycles
 SCF Done:  E(RB3LYP) =  -2934.43016248     A.U. after   17 cycles
 SCF Done:  E(RB3LYP) =  -2934.43019338     A.U. after   17 cycles
 SCF Done:  E(RB3LYP) =  -2934.43020909     A.U. after   17 cycles
 SCF Done:  E(RB3LYP) =  -2934.43021667     A.U. after   16 cycles
 SCF Done:  E(RB3LYP) =  -2934.43022388     A.U. after   15 cycles
 SCF Done:  E(RB3LYP) =  -2934.43022859     A.U. after   16 cycles
 SCF Done:  E(RB3LYP) =  -2934.43023124     A.U. after   16 cycles
 SCF Done:  E(RB3LYP) =  -2934.43023323     A.U. after   16 cycles
 SCF Done:  E(RB3LYP) =  -2934.43023504     A.U. after   15 cycles
 SCF Done:  E(RB3LYP) =  -2934.43023659     A.U. after   15 cycles
 SCF Done:  E(RB3LYP) =  -2934.43023736     A.U. after   15 cycles
 SCF Done:  E(RB3LYP) =  -2934.43023794     A.U. after   15 cycles
 SCF Done:  E(RB3LYP) =  -2934.43023869     A.U. after   15 cycles
 SCF Done:  E(RB3LYP) =  -2934.43023908     A.U. after   14 cycles
 Optimization completed.
    -- Stationary point found.

 1\1\GINC-NODE8-IB\FOpt\RB3LYP\Gen\C3H4Mo3O3S6\CHESAGAR\25-Oct-2022\0\\
 # opt freq b3lyp/gen nosymm pseudo=read\\Title Card Required\\0,1\Mo,0
 .0309241876,1.8243854871,10.6877024801\S,0.8870248204,4.0081822572,11.
 1106748387\S,-1.7570237484,2.1081798207,12.0216569818\S,-0.8668008958,
 1.6508514361,8.5339027491\S,1.0095970519,-0.0876878449,11.5993080003\H
 ,1.8651695102,-0.3281366083,10.5718144117\Mo,-2.6254019398,2.260516470
 7,9.9521320706\S,-4.4507825533,0.8141109058,10.0969872465\H,-4.7087299
 675,0.757309387,8.7643637401\S,-2.8797096576,4.6271175728,10.069987870

 Normal termination of Gaussian 16 at Tue Oct 25 19:00:08 2022.

 ------------------------------------------------------------------
 #N Geom=AllCheck Guess=TCheck SCRF=Check GenChk RB3LYP/ChkBas Freq
 ------------------------------------------------------------------

 Structure from the checkpoint file:  "Mo2_MoCO3.chk"
 -------------------
 Title Card Required
 -------------------
 Charge =  0 Multiplicity = 1

                          Input orientation:
 ---------------------------------------------------------------------
 Center     Atomic      Atomic             Coordinates (Angstroms)
 Number     Number       Type             X           Y           Z
 ---------------------------------------------------------------------
      1         42           0        0.030924    1.824385   10.687702
      2         16           0        0.887025    4.008182   11.110675
      3         16           0       -1.757024    2.108180   12.021657
      4         16           0       -0.866801    1.650851    8.533903
      5         16           0        1.009597   -0.087688   11.599308
      6          1           0        1.865170   -0.328137   10.571814
      7         42           0       -2.625402    2.260516    9.952132
      8         16           0       -4.450783    0.814111   10.096987
      9          1           0       -4.708730    0.757309    8.764364
     10         16           0       -2.879710    4.627118   10.069988
     11          1           0       -3.601732    4.897264    8.956345
     12          1           0        2.111717    3.955225   10.534736
     13         42           0       -0.537081    4.183600    8.849052
     14          6           0       -0.227582    6.183418    8.916445
     15          6           0        1.175955    3.983324    7.844518
     16          6           0       -1.485520    4.418858    7.108512
     17          8           0       -0.047663    7.322501    8.941285
     18          8           0        2.171453    3.880286    7.261575
     19          8           0       -2.032937    4.567681    6.098728
 ---------------------------------------------------------------------

 SCF Done:  E(RB3LYP) =  -2934.43023908     A.U. after    1 cycles

 Alpha  occ. eigenvalues --  -88.91054 -88.90602 -88.90599 -88.90311 -88.87965
 Alpha  occ. eigenvalues --  -88.87956 -19.23956 -19.23232 -19.23230 -10.31363
 Alpha  occ. eigenvalues --  -10.30702 -10.30699  -7.98824  -7.98171  -7.98168
 Alpha  occ. eigenvalues --   -7.97918  -7.95729  -7.95720  -5.94904  -5.94723
 Alpha  occ. eigenvalues --   -5.94681  -5.94425  -5.94421  -5.94061  -5.94058
 Alpha  occ. eigenvalues --   -5.93918  -5.93915  -5.93911  -5.93887  -5.93839
 Alpha  occ. eigenvalues --   -5.92011  -5.92002  -5.91566  -5.91556  -5.91458
 Alpha  occ. eigenvalues --   -5.91449  -2.53804  -2.53588  -2.47929  -1.57609
 Alpha  occ. eigenvalues --   -1.56345  -1.56158  -1.55691  -1.55446  -1.55039
 Alpha  occ. eigenvalues --   -1.50969  -1.50293  -1.50251  -1.14153  -1.13381
 Alpha  occ. eigenvalues --   -1.13348  -0.76041  -0.75549  -0.73861  -0.73258
 Alpha  occ. eigenvalues --   -0.72935  -0.72764  -0.57818  -0.56732  -0.56518
 Alpha  occ. eigenvalues --   -0.47493  -0.46887  -0.46870  -0.46315  -0.46169
 Alpha  occ. eigenvalues --   -0.45875  -0.45423  -0.45176  -0.44572  -0.44457
 Alpha  occ. eigenvalues --   -0.43473  -0.43368  -0.42832  -0.39425  -0.38675
 Alpha  occ. eigenvalues --   -0.37587  -0.37311  -0.35800  -0.35684  -0.34675
 Alpha  occ. eigenvalues --   -0.34353  -0.33990  -0.32934  -0.32719  -0.31623
 Alpha  occ. eigenvalues --   -0.29398  -0.29249  -0.25813  -0.25086  -0.24626
 Alpha  occ. eigenvalues --   -0.22626  -0.21133
 Alpha virt. eigenvalues --   -0.14637  -0.14557  -0.12352  -0.11543  -0.11054
 Alpha virt. eigenvalues --   -0.10031  -0.08186  -0.05866  -0.04382  -0.03862
 Alpha virt. eigenvalues --   -0.03245  -0.01978  -0.01088  -0.00800  -0.00287

 Mulliken charges:
               1
     1  Mo   0.034029
     2  S    0.005623
     3  S    0.063371
     4  S    0.054920
     5  S   -0.119791
     6  H    0.078921
     7  Mo   0.033509
     8  S   -0.119578
     9  H    0.078712
    10  S    0.005821
    11  H    0.101125
    12  H    0.101262
    13  Mo  -0.299553
    14  C    0.245782
    15  C    0.246914
    16  C    0.246947
    17  O   -0.239434
    18  O   -0.259300
    19  O   -0.259282
 Sum of Mulliken charges =  -0.00000

 Dipole moment (field-independent basis, Debye):
    X=              0.1935    Y=             -0.2090    Z=             -0.8257  Tot=              0.8734
 Quadrupole moment (field-independent basis, Debye-Ang):
   XX=           -174.7718   YY=           -190.4786   ZZ=           -206.5066
   XY=             -3.8583   XZ=              8.8939   YZ=              1.9598

  Exact polarizability:     325.870      18.086     324.444       7.723     -65.618     257.378
 Approx polarizability:     985.498      13.541     785.964      60.122    -175.326     676.031

                      1                      2                      3
                      A                      A                      A
 Frequencies --     25.8351                47.5704                50.5021
 Red. masses --     15.7687                12.5249                15.8901
 Frc consts  --      0.0062                 0.0167                 0.0239
 IR Inten    --      0.2341                 0.3975                 0.0860

                      4                      5                      6
                      A                      A                      A
 Frequencies --     55.2581                62.3030                74.1356
 Red. masses --     15.3848                17.1084                13.3413
 Frc consts  --      0.0277                 0.0391                 0.0432
 IR Inten    --      1.8475                 0.1915                 0.0073

                      7                      8                      9
                      A                      A                      A
 Frequencies --     82.0575                84.4336                88.5517
 Red. masses --     15.8649                17.0783                14.1761
 Frc consts  --      0.0629                 0.0717                 0.0655
 IR Inten    --      0.0382                 1.7747                 2.1111

                     10                     11                     12
                      A                      A                      A
 Frequencies --     89.5100                97.2129               109.2335
 Red. masses --     15.7977                19.2548                19.3577
 Frc consts  --      0.0746                 0.1072                 0.1361
 IR Inten    --      0.1310                 1.4300                 1.4749

                     13                     14                     15
                      A                      A                      A
 Frequencies --    110.8707               132.5004               173.7006
 Red. masses --     16.0421                27.6939                24.9938
 Frc consts  --      0.1162                 0.2865                 0.4443
 IR Inten    --      0.0019                 6.4005                 3.9068

                     16                     17                     18
                      A                      A                      A
 Frequencies --    194.6167               198.8717               215.9205
 Red. masses --     31.9641                22.7158                27.2286
 Frc consts  --      0.7133                 0.5293                 0.7479
 IR Inten    --      0.9119                 0.2943                 6.0594

                     19                     20                     21
                      A                      A                      A
 Frequencies --    270.8137               293.6491               304.3372
 Red. masses --     21.7455                 1.1185                 1.1466
 Frc consts  --      0.9396                 0.0568                 0.0626
 IR Inten    --      6.2327                15.6849                 8.2934

                     22                     23                     24
                      A                      A                      A
 Frequencies --    316.5821               342.1483               346.9219
 Red. masses --     21.0306                21.0357                36.5369
 Frc consts  --      1.2419                 1.4509                 2.5909
 IR Inten    --     13.7743                14.3399                 1.5116

                     25                     26                     27
                      A                      A                      A
 Frequencies --    363.1198               374.7832               377.6261
 Red. masses --     17.9386                20.3953                17.2201
 Frc consts  --      1.3936                 1.6879                 1.4468
 IR Inten    --     19.9256                77.3023                25.6025

                     28                     29                     30
                      A                      A                      A
 Frequencies --    415.3518               425.9374               426.4723
 Red. masses --     14.8369                14.3916                17.6060
 Frc consts  --      1.5081                 1.5383                 1.8867
 IR Inten    --     21.7887                 6.6638                 5.3046

                     31                     32                     33
                      A                      A                      A
 Frequencies --    443.0815               444.5924               460.7178
 Red. masses --     14.7900                12.4644                15.1285
 Frc consts  --      1.7107                 1.4516                 1.8920
 IR Inten    --     41.0554                 3.3737                 8.0331

                     34                     35                     36
                      A                      A                      A
 Frequencies --    474.9614               477.1680               553.5518
 Red. masses --      8.3444                14.3753                 7.3221
 Frc consts  --      1.1091                 1.9285                 1.3219
 IR Inten    --      3.4065                12.7872                 5.8656

                     37                     38                     39
                      A                      A                      A
 Frequencies --    569.5522               573.2958               591.8427
 Red. masses --      9.9399                 1.5270                 1.2063
 Frc consts  --      1.8998                 0.2957                 0.2490
 IR Inten    --     47.4217                 7.2734                10.8086

                     40                     41                     42
                      A                      A                      A
 Frequencies --    596.3027               610.4829               624.0610
 Red. masses --      1.1625                 1.0766                 2.1271
 Frc consts  --      0.2435                 0.2364                 0.4881
 IR Inten    --     18.4355                16.1202                31.9792

                     43                     44                     45
                      A                      A                      A
 Frequencies --    679.9633               686.9502              2020.8106
 Red. masses --      1.0664                 1.0995                13.3845
 Frc consts  --      0.2905                 0.3057                32.2035
 IR Inten    --      6.1666                11.6310               783.1613

                     46                     47                     48
                      A                      A                      A
 Frequencies --   2045.7804              2089.1156              2598.1958
 Red. masses --     13.3701                13.3453                 1.0381
 Frc consts  --     32.9688                34.3166                 4.1288
 IR Inten    --    735.5626              2010.7085                 6.3306

                     49                     50                     51
                      A                      A                      A
 Frequencies --   2599.1093              2617.1219              2618.3766
 Red. masses --      1.0381                 1.0386                 1.0386
 Frc consts  --      4.1317                 4.1915                 4.1954
 IR Inten    --      6.2882                 3.0753                 1.4549

 - Thermochemistry -
 -------------------
 Temperature   298.150 Kelvin.  Pressure   1.00000 Atm.
 Atom     1 has atomic number 42 and mass  97.90550

 Molecular mass:   573.56497 amu.
 Principal axes and moments of inertia in atomic units:
                           1         2         3
     Eigenvalues --  6926.625369147.40764**********
           X            0.28020   0.95159  -0.12638
           Y            0.79885  -0.15814   0.58038
           Z           -0.53229   0.26358   0.80448
 This molecule is an asymmetric top.
 Rotational symmetry number  1.
 Warning -- assumption of classical behavior for rotation
           may cause significant error
 Rotational temperatures (Kelvin)      0.01250     0.00947     0.00708
 Rotational constants (GHZ):           0.26055     0.19730     0.14750
 Zero-point vibrational energy     182585.2 (Joules/Mol)
                                   43.63891 (Kcal/Mol)
 Warning -- explicit consideration of  41 degrees of freedom as
           vibrations may cause significant error
 Vibrational temperatures:     37.17    68.44    72.66    79.50    89.64
          (Kelvin)            106.66   118.06   121.48   127.41   128.78
                              139.87   157.16   159.52   190.64   249.92
                              280.01   286.13   310.66   389.64   422.50
                              437.87   455.49   492.28   499.14   522.45
                              539.23   543.32   597.60   612.83   613.60
                              637.50   639.67   662.87   683.36   686.54
                              796.44   819.46   824.84   851.53   857.95
                              878.35   897.88   978.32   988.37  2907.50
                             2943.42  3005.77  3738.22  3739.54  3765.45
                             3767.26

 Zero-point correction=                           0.069543 (Hartree/Particle)
 Thermal correction to Energy=                    0.092517
 Thermal correction to Enthalpy=                  0.093461
 Thermal correction to Gibbs Free Energy=         0.013982
 Sum of electronic and zero-point Energies=          -2934.360696
 Sum of electronic and thermal Energies=             -2934.337722
 Sum of electronic and thermal Enthalpies=           -2934.336778
 Sum of electronic and thermal Free Energies=        -2934.416257

                     E (Thermal)             CV                S
                      KCal/Mol        Cal/Mol-Kelvin    Cal/Mol-Kelvin
 Total                   58.055             75.378            167.278
 Electronic               0.000              0.000              0.000
 Translational            0.889              2.981             44.925
 Rotational               0.889              2.981             35.004
 Vibrational             56.278             69.417             87.349
 Vibration     1          0.593              1.985              6.126
 Vibration     2          0.595              1.979              4.916
 Vibration     3          0.595              1.977              4.798
 Vibration     4          0.596              1.975              4.620
 Vibration     5          0.597              1.972              4.383
 Vibration     6          0.599              1.966              4.040
 Vibration     7          0.600              1.961              3.841
 Vibration     8          0.601              1.960              3.785
 Vibration     9          0.601              1.957              3.692
 Vibration    10          0.602              1.957              3.671
 Vibration    11          0.603              1.951              3.509
 Vibration    12          0.606              1.942              3.282
 Vibration    13          0.607              1.940              3.254
 Vibration    14          0.613              1.921              2.909
 Vibration    15          0.627              1.875              2.395
 Vibration    16          0.635              1.847              2.183
 Vibration    17          0.637              1.841              2.144
 Vibration    18          0.645              1.817              1.993
 Vibration    19          0.675              1.727              1.591
 Vibration    20          0.688              1.686              1.453
 Vibration    21          0.695              1.665              1.393
 Vibration    22          0.703              1.642              1.328
 Vibration    23          0.721              1.591              1.202
 Vibration    24          0.725              1.582              1.180
 Vibration    25          0.737              1.548              1.109
 Vibration    26          0.746              1.524              1.060
 Vibration    27          0.748              1.518              1.049
 Vibration    28          0.779              1.437              0.908
 Vibration    29          0.788              1.414              0.872
 Vibration    30          0.788              1.413              0.870
 Vibration    31          0.803              1.376              0.817
 Vibration    32          0.804              1.373              0.812
 Vibration    33          0.819              1.337              0.764
 Vibration    34          0.832              1.306              0.724
 Vibration    35          0.834              1.301              0.718
 Vibration    36          0.909              1.132              0.537
 Vibration    37          0.926              1.097              0.505
 Vibration    38          0.930              1.089              0.498
 Vibration    39          0.949              1.049              0.464
 Vibration    40          0.954              1.040              0.456
 Vibration    41          0.970              1.010              0.432

                           ! Non-Optimized Parameters !

 1\1\GINC-NODE8-IB\Freq\RB3LYP\Gen\C3H4Mo3O3S6\CHESAGAR\25-Oct-2022\0\\
 #N Geom=AllCheck Guess=TCheck SCRF=Check GenChk RB3LYP/ChkBas Freq\\Ti
 tle Card Required\\0,1\Mo,0.0309241876,1.8243854871,10.6877024801\S,0.
 8870248204,4.0081822572,11.1106748387\S,-1.7570237484,2.1081798207,12.
 0216569818\S,-0.8668008958,1.6508514361,8.5339027491\S,1.0095970519,-0
 .0876878449,11.5993080003\H,1.8651695102,-0.3281366083,10.5718144117\M
 o,-2.6254019398,2.2605164707,9.9521320706\S,-4.4507825533,0.8141109058
 ,10.0969872465\H,-4.7087299675,0.757309387,8.7643637401\S,-2.879709657

 Normal termination of Gaussian 16 at Tue Oct 25 19:01:11 2022.
