 Gaussian 16, Revision C.01,
 Gaussian 16:  ES64L-G16RevC.01  3-Jul-2019

 ---------------------------------------
 # opt freq b3lyp/gen nosymm pseudo=read
 ---------------------------------------

 -------------------
 Title Card Required
 -------------------
 Symbolic Z-matrix:
 Charge =  0 Multiplicity = 1

 SCF Done:  E(RB3LYP) =  -2821.05011307     A.U. after   27 cycles
 SCF Done:  E(RB3LYP) =  -2821.05177134     A.U. after   18 cycles
 SCF Done:  E(RB3LYP) =  -2821.05260567     A.U. after   19 cycles
 SCF Done:  E(RB3LYP) =  -2821.05288637     A.U. after   19 cycles
 SCF Done:  E(RB3LYP) =  -2821.05301178     A.U. after   18 cycles
 SCF Done:  E(RB3LYP) =  -2821.05305664     A.U. after   17 cycles
 SCF Done:  E(RB3LYP) =  -2821.05307700     A.U. after   16 cycles
 SCF Done:  E(RB3LYP) =  -2821.05309148     A.U. after   16 cycles
 SCF Done:  E(RB3LYP) =  -2821.05310040     A.U. after   16 cycles
 SCF Done:  E(RB3LYP) =  -2821.05311503     A.U. after   16 cycles
 SCF Done:  E(RB3LYP) =  -2821.05312773     A.U. after   17 cycles
 SCF Done:  E(RB3LYP) =  -2821.05313183     A.U. after   16 cycles
 SCF Done:  E(RB3LYP) =  -2821.05313276     A.U. after   15 cycles
 SCF Done:  E(RB3LYP) =  -2821.05313346     A.U. after   15 cycles
 SCF Done:  E(RB3LYP) =  -2821.05313374     A.U. after   15 cycles
 SCF Done:  E(RB3LYP) =  -2821.05313386     A.U. after   12 cycles
 Optimization completed.
    -- Stationary point found.

 1\1\GINC-NODE8-IB\FOpt\RB3LYP\Gen\C2H4Mo3O2S6\CHESAGAR\25-Oct-2022\0\\
 # opt freq b3lyp/gen nosymm pseudo=read\\Title Card Required\\0,1\Mo,0
 .0622159836,1.7787733255,10.6125241354\S,0.7874091987,4.0276078631,11.
 0995645486\S,-1.7535576763,1.9640009064,11.9264926839\S,-0.8503159034,
 1.613273013,8.4421357494\S,1.1070003248,-0.0636482321,11.6159930647\H,
 2.0470482913,-0.2325869223,10.6491755632\Mo,-2.6282121625,2.2219274205
 ,9.8703366421\S,-4.5304202332,0.8665592131,10.0642326838\H,-4.86234828
 24,0.9051075413,8.7469268624\S,-2.787924975,4.6168509512,10.1115291561

 Normal termination of Gaussian 16 at Tue Oct 25 19:08:05 2022.

 ------------------------------------------------------------------
 #N Geom=AllCheck Guess=TCheck SCRF=Check GenChk RB3LYP/ChkBas Freq
 ------------------------------------------------------------------

 Structure from the checkpoint file:  "Mo2_MoCO2.chk"
 -------------------
 Title Card Required
 -------------------
 Charge =  0 Multiplicity = 1

                          Input orientation:
 ---------------------------------------------------------------------
 Center     Atomic      Atomic             Coordinates (Angstroms)
 Number     Number       Type             X           Y           Z
 ---------------------------------------------------------------------
      1         42           0        0.062216    1.778773   10.612524
      2         16           0        0.787409    4.027608   11.099565
      3         16           0       -1.753558    1.964001   11.926493
      4         16           0       -0.850316    1.613273    8.442136
      5         16           0        1.107000   -0.063648   11.615993
      6          1           0        2.047048   -0.232587   10.649176
      7         42           0       -2.628212    2.221927    9.870337
      8         16           0       -4.530420    0.866559   10.064233
      9          1           0       -4.862348    0.905108    8.746927
     10         16           0       -2.787925    4.616851   10.111529
     11          1           0       -3.567430    4.958415    9.057326
     12          1           0        2.050653    4.032254   10.609842
     13         42           0       -0.566461    4.043811    8.870696
     14          6           0        1.158048    3.869247    7.868894
     15          6           0       -1.517499    4.310446    7.129099
     16          8           0        2.152551    3.791748    7.280596
     17          8           0       -2.053510    4.485384    6.117586
 ---------------------------------------------------------------------

 SCF Done:  E(RB3LYP) =  -2821.05313386     A.U. after    1 cycles

 Alpha  occ. eigenvalues --  -88.90275 -88.89896 -88.89895 -88.89842 -88.87092
 Alpha  occ. eigenvalues --  -88.87086 -19.23883 -19.23876 -10.31080 -10.31073
 Alpha  occ. eigenvalues --   -7.98021  -7.97482  -7.97480  -7.97424  -7.94839
 Alpha  occ. eigenvalues --   -7.94832  -5.94103  -5.93932  -5.93870  -5.93751
 Alpha  occ. eigenvalues --   -5.93748  -5.93429  -5.93391  -5.93361  -5.93359
 Alpha  occ. eigenvalues --   -5.93340  -5.93225  -5.93223  -5.91131  -5.91125
 Alpha  occ. eigenvalues --   -5.90659  -5.90653  -5.90579  -5.90573  -2.52724
 Alpha  occ. eigenvalues --   -2.52537  -2.48764  -1.56305  -1.55464  -1.55194
 Alpha  occ. eigenvalues --   -1.54643  -1.54386  -1.53991  -1.51497  -1.51098
 Alpha  occ. eigenvalues --   -1.51050  -1.13957  -1.13926  -0.75505  -0.74944
 Alpha  occ. eigenvalues --   -0.73196  -0.72397  -0.72289  -0.71909  -0.57792
 Alpha  occ. eigenvalues --   -0.57076  -0.47602  -0.46662  -0.46498  -0.46396
 Alpha  occ. eigenvalues --   -0.46199  -0.45379  -0.45104  -0.43107  -0.42583
 Alpha  occ. eigenvalues --   -0.42056  -0.38849  -0.37827  -0.37302  -0.36655
 Alpha  occ. eigenvalues --   -0.35300  -0.34858  -0.34449  -0.33880  -0.33270
 Alpha  occ. eigenvalues --   -0.32504  -0.32013  -0.30994  -0.28611  -0.28482
 Alpha  occ. eigenvalues --   -0.25475  -0.24839  -0.24234  -0.22471  -0.20013
 Alpha virt. eigenvalues --   -0.13905  -0.13717  -0.13422  -0.11179  -0.10361
 Alpha virt. eigenvalues --   -0.09372  -0.07426  -0.06415  -0.05312  -0.03866
 Alpha virt. eigenvalues --   -0.03532  -0.02261  -0.01608  -0.00252  -0.00140

 Mulliken charges:
               1
     1  Mo   0.036423
     2  S   -0.000027
     3  S    0.048013
     4  S    0.054123
     5  S   -0.127968
     6  H    0.072750
     7  Mo   0.036705
     8  S   -0.127951
     9  H    0.072704
    10  S   -0.000353
    11  H    0.094307
    12  H    0.094356
    13  Mo  -0.188543
    14  C    0.212777
    15  C    0.212847
    16  O   -0.245130
    17  O   -0.245034
 Sum of Mulliken charges =  -0.00000

 Dipole moment (field-independent basis, Debye):
    X=              0.8859    Y=              2.2579    Z=             -1.8624  Tot=              3.0581
 Quadrupole moment (field-independent basis, Debye-Ang):
   XX=           -167.6490   YY=           -158.9463   ZZ=           -217.4497
   XY=             -2.1486   XZ=             15.9307   YZ=             20.7271

  Exact polarizability:     332.130       4.216     259.153      11.133     -60.177     257.842
 Approx polarizability:    1061.327     -19.775     629.572      71.671    -199.551     704.025

                      1                      2                      3
                      A                      A                      A
 Frequencies --     18.2760                44.1141                50.0314
 Red. masses --     16.0930                13.3471                18.5520
 Frc consts  --      0.0032                 0.0153                 0.0274
 IR Inten    --      0.0843                 0.1624                 1.0295

                      4                      5                      6
                      A                      A                      A
 Frequencies --     60.1893                60.9775                78.4147
 Red. masses --     14.0000                19.1538                16.0516
 Frc consts  --      0.0299                 0.0420                 0.0582
 IR Inten    --      1.3353                 0.0463                 0.5430

                      7                      8                      9
                      A                      A                      A
 Frequencies --     78.5673                91.5368                99.1384
 Red. masses --     17.2400                14.0301                15.6914
 Frc consts  --      0.0627                 0.0693                 0.0909
 IR Inten    --      0.0038                 1.4079                 1.4838

                     10                     11                     12
                      A                      A                      A
 Frequencies --    106.9931               108.2648               135.9466
 Red. masses --     19.5157                12.4559                28.4466
 Frc consts  --      0.1316                 0.0860                 0.3098
 IR Inten    --      0.4646                 0.0990                 4.3999

                     13                     14                     15
                      A                      A                      A
 Frequencies --    166.5331               200.6180               207.2215
 Red. masses --     20.2471                26.0576                27.0329
 Frc consts  --      0.3308                 0.6179                 0.6839
 IR Inten    --      1.1115                 0.1458                 1.0604

                     16                     17                     18
                      A                      A                      A
 Frequencies --    233.7785               274.5000               297.3508
 Red. masses --     25.8620                 1.1218                 2.1816
 Frc consts  --      0.8328                 0.0498                 0.1136
 IR Inten    --      3.8752                19.5911                 7.8341

                     19                     20                     21
                      A                      A                      A
 Frequencies --    303.1230               312.6187               331.8224
 Red. masses --      2.1560                25.5785                24.6047
 Frc consts  --      0.1167                 1.4728                 1.5962
 IR Inten    --     14.6415                13.7862                 2.3281

                     22                     23                     24
                      A                      A                      A
 Frequencies --    337.7749               354.9371               365.2375
 Red. masses --     32.5257                20.0555                26.0962
 Frc consts  --      2.1864                 1.4886                 2.0511
 IR Inten    --      3.2590                 2.7074                79.6672

                     25                     26                     27
                      A                      A                      A
 Frequencies --    370.7740               413.4939               423.2500
 Red. masses --     18.3655                14.7630                17.0134
 Frc consts  --      1.4875                 1.4872                 1.7957
 IR Inten    --     52.5182                18.3415                15.1083

                     28                     29                     30
                      A                      A                      A
 Frequencies --    437.3092               458.8714               468.1704
 Red. masses --     16.0703                16.5435                10.4326
 Frc consts  --      1.8107                 2.0524                 1.3473
 IR Inten    --     44.8325                 6.2061                 1.4720

                     31                     32                     33
                      A                      A                      A
 Frequencies --    477.0732               514.6780               574.6166
 Red. masses --      8.4999                10.8227                 1.8603
 Frc consts  --      1.1398                 1.6891                 0.3619
 IR Inten    --      2.1068                 9.3482                 7.7828

                     34                     35                     36
                      A                      A                      A
 Frequencies --    586.5242               595.3748               617.2489
 Red. masses --      1.5343                 1.0856                 1.0886
 Frc consts  --      0.3110                 0.2267                 0.2444
 IR Inten    --     17.0728                 0.2039                18.5735

                     37                     38                     39
                      A                      A                      A
 Frequencies --    630.1828               689.4598               698.1554
 Red. masses --      1.2769                 1.0654                 1.0982
 Frc consts  --      0.2988                 0.2984                 0.3154
 IR Inten    --      5.1320                 4.4770                10.8990

                     40                     41                     42
                      A                      A                      A
 Frequencies --   2015.1848              2059.5250              2593.6481
 Red. masses --     13.3954                13.3453                 1.0381
 Frc consts  --     32.0506                33.3514                 4.1143
 IR Inten    --    835.3382              1671.3754                 8.6153

                     43                     44                     45
                      A                      A                      A
 Frequencies --   2594.3551              2609.1868              2610.6867
 Red. masses --      1.0381                 1.0387                 1.0387
 Frc consts  --      4.1165                 4.1665                 4.1711
 IR Inten    --      8.5858                 8.0274                 3.5896

 - Thermochemistry -
 -------------------
 Temperature   298.150 Kelvin.  Pressure   1.00000 Atm.
 Atom     1 has atomic number 42 and mass  97.90550

 Molecular mass:   545.57006 amu.
 Principal axes and moments of inertia in atomic units:
                           1         2         3
     Eigenvalues --  6670.201257034.30949**********
           X            0.30157   0.94995  -0.08152
           Y            0.69864  -0.16198   0.69690
           Z           -0.64882   0.26712   0.71252
 This molecule is an asymmetric top.
 Rotational symmetry number  1.
 Warning -- assumption of classical behavior for rotation
           may cause significant error
 Rotational temperatures (Kelvin)      0.01299     0.01231     0.00822
 Rotational constants (GHZ):           0.27057     0.25656     0.17127
 Zero-point vibrational energy     160034.8 (Joules/Mol)
                                   38.24924 (Kcal/Mol)
 Warning -- explicit consideration of  36 degrees of freedom as
           vibrations may cause significant error
 Vibrational temperatures:     26.30    63.47    71.98    86.60    87.73
          (Kelvin)            112.82   113.04   131.70   142.64   153.94
                              155.77   195.60   239.60   288.64   298.15
                              336.36   394.94   427.82   436.13   449.79
                              477.42   485.98   510.68   525.50   533.46
                              594.93   608.96   629.19   660.21   673.59
                              686.40   740.51   826.75   843.88   856.61
                              888.08   906.69   991.98  1004.49  2899.40
                             2963.20  3731.68  3732.70  3754.04  3756.20

 Zero-point correction=                           0.060954 (Hartree/Particle)
 Thermal correction to Energy=                    0.081724
 Thermal correction to Enthalpy=                  0.082668
 Thermal correction to Gibbs Free Energy=         0.007710
 Sum of electronic and zero-point Energies=          -2820.992180
 Sum of electronic and thermal Energies=             -2820.971410
 Sum of electronic and thermal Enthalpies=           -2820.970466
 Sum of electronic and thermal Free Energies=        -2821.045424

                     E (Thermal)             CV                S
                      KCal/Mol        Cal/Mol-Kelvin    Cal/Mol-Kelvin
 Total                   51.283             67.687            157.763
 Electronic               0.000              0.000              0.000
 Translational            0.889              2.981             44.775
 Rotational               0.889              2.981             34.557
 Vibrational             49.505             61.726             78.430
 Vibration     1          0.593              1.986              6.813
 Vibration     2          0.595              1.980              5.065
 Vibration     3          0.595              1.978              4.816
 Vibration     4          0.597              1.973              4.451
 Vibration     5          0.597              1.973              4.425
 Vibration     6          0.600              1.964              3.930
 Vibration     7          0.600              1.964              3.926
 Vibration     8          0.602              1.955              3.627
 Vibration     9          0.604              1.950              3.471
 Vibration    10          0.606              1.944              3.323
 Vibration    11          0.606              1.943              3.300
 Vibration    12          0.614              1.917              2.860
 Vibration    13          0.624              1.884              2.474
 Vibration    14          0.638              1.839              2.127
 Vibration    15          0.641              1.830              2.068
 Vibration    16          0.654              1.789              1.850
 Vibration    17          0.677              1.720              1.568
 Vibration    18          0.691              1.679              1.432
 Vibration    19          0.695              1.668              1.400
 Vibration    20          0.701              1.650              1.348
 Vibration    21          0.714              1.612              1.251
 Vibration    22          0.718              1.600              1.223
 Vibration    23          0.731              1.565              1.144
 Vibration    24          0.738              1.544              1.100
 Vibration    25          0.743              1.532              1.077
 Vibration    26          0.777              1.441              0.914
 Vibration    27          0.785              1.420              0.881
 Vibration    28          0.798              1.389              0.835
 Vibration    29          0.817              1.341              0.769
 Vibration    30          0.825              1.321              0.743
 Vibration    31          0.834              1.301              0.718
 Vibration    32          0.870              1.217              0.622
 Vibration    33          0.931              1.086              0.495
 Vibration    34          0.944              1.061              0.473
 Vibration    35          0.953              1.042              0.458
 Vibration    36          0.977              0.995              0.421

                           ! Non-Optimized Parameters !

 1\1\GINC-NODE8-IB\Freq\RB3LYP\Gen\C2H4Mo3O2S6\CHESAGAR\25-Oct-2022\0\\
 #N Geom=AllCheck Guess=TCheck SCRF=Check GenChk RB3LYP/ChkBas Freq\\Ti
 tle Card Required\\0,1\Mo,0.0622159836,1.7787733255,10.6125241354\S,0.
 7874091987,4.0276078631,11.0995645486\S,-1.7535576763,1.9640009064,11.
 9264926839\S,-0.8503159034,1.613273013,8.4421357494\S,1.1070003248,-0.
 0636482321,11.6159930647\H,2.0470482913,-0.2325869223,10.6491755632\Mo
 ,-2.6282121625,2.2219274205,9.8703366421\S,-4.5304202332,0.8665592131,
 10.0642326838\H,-4.8623482824,0.9051075413,8.7469268624\S,-2.787924975

 Normal termination of Gaussian 16 at Tue Oct 25 19:08:54 2022.
