 Gaussian 16, Revision C.01,
 Gaussian 16:  ES64L-G16RevC.01  3-Jul-2019

 ---------------------------------------
 # opt freq b3lyp/gen nosymm pseudo=read
 ---------------------------------------

 -------------------
 Title Card Required
 -------------------
 Symbolic Z-matrix:
 Charge =  0 Multiplicity = 1

 SCF Done:  E(RB3LYP) =  -2707.68579044     A.U. after   28 cycles
 SCF Done:  E(RB3LYP) =  -2707.69051879     A.U. after   20 cycles
 SCF Done:  E(RB3LYP) =  -2707.69359505     A.U. after   20 cycles
 SCF Done:  E(RB3LYP) =  -2707.69568990     A.U. after   19 cycles
 SCF Done:  E(RB3LYP) =  -2707.69772407     A.U. after   19 cycles
 SCF Done:  E(RB3LYP) =  -2707.69787042     A.U. after   18 cycles
 SCF Done:  E(RB3LYP) =  -2707.69859352     A.U. after   19 cycles
 SCF Done:  E(RB3LYP) =  -2707.69894513     A.U. after   18 cycles
 SCF Done:  E(RB3LYP) =  -2707.69906653     A.U. after   18 cycles
 SCF Done:  E(RB3LYP) =  -2707.69913465     A.U. after   17 cycles
 SCF Done:  E(RB3LYP) =  -2707.69924132     A.U. after   15 cycles
 SCF Done:  E(RB3LYP) =  -2707.69924442     A.U. after   14 cycles
 SCF Done:  E(RB3LYP) =  -2707.69924560     A.U. after   14 cycles
 SCF Done:  E(RB3LYP) =  -2707.69924642     A.U. after   14 cycles
 SCF Done:  E(RB3LYP) =  -2707.69924715     A.U. after   15 cycles
 SCF Done:  E(RB3LYP) =  -2707.69924811     A.U. after   14 cycles
 SCF Done:  E(RB3LYP) =  -2707.69924868     A.U. after   14 cycles
 SCF Done:  E(RB3LYP) =  -2707.69924896     A.U. after   12 cycles
 SCF Done:  E(RB3LYP) =  -2707.69924906     A.U. after   13 cycles
 Optimization completed.
    -- Stationary point found.
 Normal termination of Gaussian 16 at Tue Oct 25 19:31:40 2022.

 ------------------------------------------------------------------
 #N Geom=AllCheck Guess=TCheck SCRF=Check GenChk RB3LYP/ChkBas Freq
 ------------------------------------------------------------------

 Structure from the checkpoint file:  "Mo2_MoCO.chk"
 -------------------
 Title Card Required
 -------------------
 Charge =  0 Multiplicity = 1

                          Input orientation:
 ---------------------------------------------------------------------
 Center     Atomic      Atomic             Coordinates (Angstroms)
 Number     Number       Type             X           Y           Z
 ---------------------------------------------------------------------
      1         42           0       -0.017618    1.952859   11.329222
      2         16           0        1.068678    4.184426   11.027191
      3         16           0       -1.952446    2.227363   12.434089
      4         16           0       -0.342773    1.664293    8.959439
      5         16           0        1.137158   -0.023335   11.598264
      6          1           0        1.075185   -0.656887   10.401292
      7         42           0       -2.324740    2.298771   10.102654
      8         16           0       -3.992404    0.781705    9.441581
      9          1           0       -4.075222    1.116643    8.132521
     10         16           0       -2.816091    4.726965   10.192429
     11          1           0       -3.746495    4.835870    9.212823
     12          1           0        2.060244    3.822477   10.177277
     13         42           0       -0.787781    4.011731    9.012618
     14          6           0       -1.734100    4.149815    7.308993
     15          8           0       -2.308051    4.232851    6.297117
 ---------------------------------------------------------------------

 SCF Done:  E(RB3LYP) =  -2707.69924906     A.U. after    1 cycles

 Alpha  occ. eigenvalues --  -88.90460 -88.88884 -88.88772 -88.88293 -88.87510
 Alpha  occ. eigenvalues --  -88.87299 -19.21519 -10.29154  -7.98106  -7.96535
 Alpha  occ. eigenvalues --   -7.96486  -7.96213  -7.95339  -7.95104  -5.94358
 Alpha  occ. eigenvalues --   -5.93984  -5.93846  -5.92835  -5.92545  -5.92450
 Alpha  occ. eigenvalues --   -5.92394  -5.92319  -5.92253  -5.92213  -5.92174
 Alpha  occ. eigenvalues --   -5.92060  -5.91606  -5.91355  -5.91191  -5.91060
 Alpha  occ. eigenvalues --   -5.90947  -5.90855  -2.53898  -2.52187  -2.49693
 Alpha  occ. eigenvalues --   -1.57765  -1.56896  -1.55780  -1.55094  -1.54327
 Alpha  occ. eigenvalues --   -1.52993  -1.52323  -1.52098  -1.51280  -1.11411
 Alpha  occ. eigenvalues --   -0.75753  -0.74494  -0.73141  -0.72672  -0.71704
 Alpha  occ. eigenvalues --   -0.71017  -0.55733  -0.46167  -0.45093  -0.44316
 Alpha  occ. eigenvalues --   -0.43968  -0.43268  -0.42980  -0.42602  -0.38402
 Alpha  occ. eigenvalues --   -0.37821  -0.37566  -0.37224  -0.36218  -0.34789
 Alpha  occ. eigenvalues --   -0.34078  -0.32960  -0.32645  -0.32211  -0.31546
 Alpha  occ. eigenvalues --   -0.30300  -0.29203  -0.28405  -0.27808  -0.25929
 Alpha  occ. eigenvalues --   -0.24075  -0.22439  -0.20374
 Alpha virt. eigenvalues --   -0.13397  -0.12837  -0.12427  -0.11864  -0.11259
 Alpha virt. eigenvalues --   -0.09855  -0.08957  -0.08168  -0.05530  -0.05089
 Alpha virt. eigenvalues --   -0.02851  -0.01603  -0.00832   0.00177   0.00811

 Mulliken charges:
               1
     1  Mo   0.067906
     2  S   -0.137708
     3  S   -0.060641
     4  S    0.085080
     5  S   -0.146621
     6  H    0.084372
     7  Mo  -0.001020
     8  S   -0.154443
     9  H    0.094873
    10  S    0.049381
    11  H    0.102848
    12  H    0.104375
    13  Mo  -0.014339
    14  C    0.200275
    15  O   -0.274337
 Sum of Mulliken charges =  -0.00000

 Dipole moment (field-independent basis, Debye):
    X=              1.2479    Y=              1.9514    Z=             -1.7020  Tot=              2.8744
 Quadrupole moment (field-independent basis, Debye-Ang):
   XX=           -158.4870   YY=           -150.5840   ZZ=           -201.6177
   XY=              0.7886   XZ=             11.1809   YZ=             16.4141

  Exact polarizability:     269.968     -13.539     263.108      37.600     -44.641     252.620
 Approx polarizability:     751.744     -13.111     648.845      84.948    -156.211     702.967

                      1                      2                      3
                      A                      A                      A
 Frequencies --     27.6883                41.1894                54.2255
 Red. masses --     12.1010                 9.9032                16.7681
 Frc consts  --      0.0055                 0.0099                 0.0290
 IR Inten    --      1.0063                 0.4496                 0.8137

                      4                      5                      6
                      A                      A                      A
 Frequencies --     60.7186                70.8666                80.2431
 Red. masses --     13.3138                17.1178                16.5546
 Frc consts  --      0.0289                 0.0507                 0.0628
 IR Inten    --      0.5025                 0.9720                 0.2184

                      7                      8                      9
                      A                      A                      A
 Frequencies --    103.9580               110.8868               114.4703
 Red. masses --     16.7663                15.5658                17.3569
 Frc consts  --      0.1068                 0.1128                 0.1340
 IR Inten    --      0.5087                 1.5436                 1.4899

                     10                     11                     12
                      A                      A                      A
 Frequencies --    144.4304               146.9166               185.3028
 Red. masses --     22.8548                24.6882                14.9994
 Frc consts  --      0.2809                 0.3140                 0.3035
 IR Inten    --      1.0679                 0.7574                 3.0101

                     13                     14                     15
                      A                      A                      A
 Frequencies --    210.2407               243.1435               277.7558
 Red. masses --     32.6114                12.5238                 5.4955
 Frc consts  --      0.8493                 0.4362                 0.2498
 IR Inten    --      0.9240                 0.7253                 2.5578

                     16                     17                     18
                      A                      A                      A
 Frequencies --    281.3833               303.7740               315.3259
 Red. masses --      8.1020                 1.8574                 5.3223
 Frc consts  --      0.3780                 0.1010                 0.3118
 IR Inten    --      7.3115                 7.6499                 3.1158

                     19                     20                     21
                      A                      A                      A
 Frequencies --    330.7477               341.4787               351.9928
 Red. masses --     13.7993                 7.9882                 1.9586
 Frc consts  --      0.8894                 0.5488                 0.1430
 IR Inten    --      6.8628                 8.7381                23.9864

                     22                     23                     24
                      A                      A                      A
 Frequencies --    374.5261               388.2600               417.7506
 Red. masses --     13.2025                 4.6365                 8.3364
 Frc consts  --      1.0911                 0.4118                 0.8572
 IR Inten    --     30.7755                33.1827                 9.0904

                     25                     26                     27
                      A                      A                      A
 Frequencies --    440.0151               459.8407               461.3602
 Red. masses --      1.3242                11.7097                 9.9535
 Frc consts  --      0.1511                 1.4588                 1.2483
 IR Inten    --      8.7802                 3.0336                30.0530

                     28                     29                     30
                      A                      A                      A
 Frequencies --    499.0431               534.0005               541.4607
 Red. masses --      4.4560                 4.6667                 1.3265
 Frc consts  --      0.6538                 0.7840                 0.2291
 IR Inten    --     34.0179                 1.0646                10.0767

                     31                     32                     33
                      A                      A                      A
 Frequencies --    601.2186               611.3746               681.7996
 Red. masses --      1.0636                 1.1792                 1.0701
 Frc consts  --      0.2265                 0.2597                 0.2931
 IR Inten    --      3.3708                14.7425                13.8984

                     34                     35                     36
                      A                      A                      A
 Frequencies --    747.0128              1991.1215              2605.0401
 Red. masses --      1.0540                13.3232                 1.0392
 Frc consts  --      0.3465                31.1210                 4.1549
 IR Inten    --      3.6511              1388.5092                 6.4851

                     37                     38                     39
                      A                      A                      A
 Frequencies --   2606.4806              2623.5802              2646.3886
 Red. masses --      1.0384                 1.0381                 1.0381
 Frc consts  --      4.1566                 4.2101                 4.2834
 IR Inten    --     19.2923                 1.6474                 1.5513

 - Thermochemistry -
 -------------------
 Temperature   298.150 Kelvin.  Pressure   1.00000 Atm.
 Atom     1 has atomic number 42 and mass  97.90550

 Molecular mass:   517.57515 amu.
 Principal axes and moments of inertia in atomic units:
                           1         2         3
     Eigenvalues --  4865.633687015.606428708.30975
           X            0.54722   0.76363  -0.34266
           Y           -0.51515   0.62995   0.58119
           Z            0.65967  -0.14151   0.73811
 This molecule is an asymmetric top.
 Rotational symmetry number  1.
 Warning -- assumption of classical behavior for rotation
           may cause significant error
 Rotational temperatures (Kelvin)      0.01780     0.01235     0.00995
 Rotational constants (GHZ):           0.37092     0.25725     0.20724
 Zero-point vibrational energy     137732.1 (Joules/Mol)
                                   32.91877 (Kcal/Mol)
 Warning -- explicit consideration of  32 degrees of freedom as
           vibrations may cause significant error
 Vibrational temperatures:     39.84    59.26    78.02    87.36   101.96
          (Kelvin)            115.45   149.57   159.54   164.70   207.80
                              211.38   266.61   302.49   349.83   399.63
                              404.85   437.06   453.68   475.87   491.31
                              506.44   538.86   558.62   601.05   633.08
                              661.61   663.79   718.01   768.31   779.04
                              865.02   879.63   980.96  1074.78  2864.78
                             3748.07  3750.14  3774.75  3807.56

 Zero-point correction=                           0.052459 (Hartree/Particle)
 Thermal correction to Energy=                    0.071009
 Thermal correction to Enthalpy=                  0.071954
 Thermal correction to Gibbs Free Energy=         0.002418
 Sum of electronic and zero-point Energies=          -2707.646790
 Sum of electronic and thermal Energies=             -2707.628240
 Sum of electronic and thermal Enthalpies=           -2707.627295
 Sum of electronic and thermal Free Energies=        -2707.696831

                     E (Thermal)             CV                S
                      KCal/Mol        Cal/Mol-Kelvin    Cal/Mol-Kelvin
 Total                   44.559             60.170            146.349
 Electronic               0.000              0.000              0.000
 Translational            0.889              2.981             44.618
 Rotational               0.889              2.981             34.052
 Vibrational             42.782             54.208             67.679
 Vibration     1          0.593              1.984              5.989
 Vibration     2          0.594              1.981              5.201
 Vibration     3          0.596              1.976              4.657
 Vibration     4          0.597              1.973              4.434
 Vibration     5          0.598              1.968              4.129
 Vibration     6          0.600              1.963              3.885
 Vibration     7          0.605              1.946              3.379
 Vibration     8          0.607              1.940              3.253
 Vibration     9          0.607              1.937              3.192
 Vibration    10          0.616              1.909              2.744
 Vibration    11          0.617              1.906              2.712
 Vibration    12          0.631              1.860              2.274
 Vibration    13          0.642              1.825              2.042
 Vibration    14          0.659              1.774              1.780
 Vibration    15          0.679              1.715              1.547
 Vibration    16          0.681              1.708              1.525
 Vibration    17          0.695              1.667              1.396
 Vibration    18          0.703              1.644              1.334
 Vibration    19          0.713              1.614              1.256
 Vibration    20          0.721              1.593              1.205
 Vibration    21          0.729              1.571              1.157
 Vibration    22          0.746              1.524              1.061
 Vibration    23          0.756              1.495              1.007
 Vibration    24          0.781              1.432              0.900
 Vibration    25          0.800              1.383              0.827
 Vibration    26          0.818              1.339              0.767
 Vibration    27          0.819              1.336              0.762
 Vibration    28          0.854              1.252              0.661
 Vibration    29          0.889              1.175              0.578
 Vibration    30          0.897              1.158              0.562
 Vibration    31          0.959              1.029              0.448
 Vibration    32          0.971              1.008              0.431

 Optimization completed.
    -- Stationary point found.
 Normal termination of Gaussian 16 at Tue Oct 25 19:32:51 2022.
