 Gaussian 16, Revision C.01,
 Gaussian 16:  ES64L-G16RevC.01  3-Jul-2019

 ---------------------------------------
 # opt freq b3lyp/gen nosymm pseudo=read
 ---------------------------------------

 -------------------
 Title Card Required
 -------------------
 Symbolic Z-matrix:
 Charge =  0 Multiplicity = 1

 SCF Done:  E(RB3LYP) =  -2594.33932818     A.U. after   26 cycles
 SCF Done:  E(RB3LYP) =  -2594.34405869     A.U. after   19 cycles
 SCF Done:  E(RB3LYP) =  -2594.34738682     A.U. after   19 cycles
 SCF Done:  E(RB3LYP) =  -2594.34841282     A.U. after   17 cycles
 SCF Done:  E(RB3LYP) =  -2594.34966619     A.U. after   17 cycles
 SCF Done:  E(RB3LYP) =  -2594.35128677     A.U. after   18 cycles
 SCF Done:  E(RB3LYP) =  -2594.35405002     A.U. after   19 cycles
 SCF Done:  E(RB3LYP) =  -2594.35628625     A.U. after   17 cycles
 SCF Done:  E(RB3LYP) =  -2594.35850706     A.U. after   17 cycles
 SCF Done:  E(RB3LYP) =  -2594.35888583     A.U. after   17 cycles
 SCF Done:  E(RB3LYP) =  -2594.35953847     A.U. after   17 cycles
 SCF Done:  E(RB3LYP) =  -2594.35956168     A.U. after   16 cycles
 SCF Done:  E(RB3LYP) =  -2594.35956393     A.U. after   13 cycles
 SCF Done:  E(RB3LYP) =  -2594.35955947     A.U. after   15 cycles
 SCF Done:  E(RB3LYP) =  -2594.35956497     A.U. after   15 cycles
 SCF Done:  E(RB3LYP) =  -2594.35956521     A.U. after   13 cycles
 SCF Done:  E(RB3LYP) =  -2594.35956536     A.U. after   12 cycles
 SCF Done:  E(RB3LYP) =  -2594.35956544     A.U. after   12 cycles
 SCF Done:  E(RB3LYP) =  -2594.35956549     A.U. after   11 cycles
 Optimization completed.
    -- Stationary point found.
 Normal termination of Gaussian 16 at Tue Oct 25 19:50:36 2022.

 ------------------------------------------------------------------
 #N Geom=AllCheck Guess=TCheck SCRF=Check GenChk RB3LYP/ChkBas Freq
 ------------------------------------------------------------------

 Structure from the checkpoint file:  "Mo3.chk"
 -------------------
 Title Card Required
 -------------------
 Charge =  0 Multiplicity = 1

                          Input orientation:
 ---------------------------------------------------------------------
 Center     Atomic      Atomic             Coordinates (Angstroms)
 Number     Number       Type             X           Y           Z
 ---------------------------------------------------------------------
      1         42           0       -0.087073    1.841133   10.948690
      2         16           0        1.016500    4.072218   10.981552
      3         16           0       -1.872744    1.388440   12.375056
      4         16           0       -0.865982    1.493840    8.683901
      5         16           0        2.048489    0.801300   10.946523
      6          1           0        1.702638   -0.466781   10.628220
      7         42           0       -2.668990    1.905729   10.264170
      8         16           0       -4.874076    1.067597   10.471222
      9          1           0       -5.601774    2.024658    9.859683
     10         16           0       -3.461200    3.968027    9.024417
     11          1           0       -3.472019    3.485065    7.756514
     12          1           0        2.073813    3.966555   10.135504
     13         42           0       -1.062550    3.673282    9.655521
 ---------------------------------------------------------------------

 SCF Done:  E(RB3LYP) =  -2594.35956549     A.U. after    1 cycles

 Alpha  occ. eigenvalues --  -88.90819 -88.89865 -88.89282 -88.87855 -88.85977
 Alpha  occ. eigenvalues --  -88.85645  -7.98478  -7.97582  -7.97036  -7.95668
 Alpha  occ. eigenvalues --   -7.93771  -7.93416  -5.94455  -5.94428  -5.94410
 Alpha  occ. eigenvalues --   -5.93852  -5.93432  -5.93328  -5.93317  -5.92895
 Alpha  occ. eigenvalues --   -5.92751  -5.91716  -5.91599  -5.91522  -5.90028
 Alpha  occ. eigenvalues --   -5.89712  -5.89595  -5.89539  -5.89288  -5.89105
 Alpha  occ. eigenvalues --   -2.53844  -2.53313  -2.52032  -1.58859  -1.57177
 Alpha  occ. eigenvalues --   -1.56680  -1.55864  -1.55423  -1.54529  -1.54397
 Alpha  occ. eigenvalues --   -1.53098  -1.52232  -0.75662  -0.74833  -0.73693
 Alpha  occ. eigenvalues --   -0.71365  -0.71162  -0.70263  -0.45730  -0.44830
 Alpha  occ. eigenvalues --   -0.42529  -0.41861  -0.39741  -0.38840  -0.37993
 Alpha  occ. eigenvalues --   -0.36777  -0.36399  -0.34988  -0.34027  -0.33338
 Alpha  occ. eigenvalues --   -0.32582  -0.31744  -0.31359  -0.30109  -0.29101
 Alpha  occ. eigenvalues --   -0.28119  -0.26517  -0.25934  -0.24804  -0.24428
 Alpha  occ. eigenvalues --   -0.23713
 Alpha virt. eigenvalues --   -0.13517  -0.13275  -0.12587  -0.11295  -0.11004
 Alpha virt. eigenvalues --   -0.10795  -0.10278  -0.07927  -0.07795  -0.04766
 Alpha virt. eigenvalues --   -0.02610  -0.01636  -0.00126   0.00167   0.01348

 Mulliken charges:
               1
     1  Mo  -0.020110
     2  S   -0.104836
     3  S   -0.096906
     4  S    0.064784
     5  S   -0.174449
     6  H    0.081428
     7  Mo   0.007665
     8  S   -0.152492
     9  H    0.085455
    10  S   -0.131539
    11  H    0.103204
    12  H    0.103661
    13  Mo   0.234135
 Sum of Mulliken charges =  -0.00000

 Dipole moment (field-independent basis, Debye):
    X=              0.4944    Y=              2.8866    Z=             -3.3128  Tot=              4.4217
 Quadrupole moment (field-independent basis, Debye-Ang):
   XX=           -160.1591   YY=           -130.9388   ZZ=           -217.5068
   XY=             -3.4540   XZ=             10.5242   YZ=             19.9914

  Exact polarizability:     340.052       2.122     200.138      20.205     -25.258     185.286
 Approx polarizability:     845.867      41.359     617.669      34.645    -153.703     508.670

                      1                      2                      3
                      A                      A                      A
 Frequencies --     20.6117                44.4361                74.1070
 Red. masses --     17.6152                 9.3535                13.0591
 Frc consts  --      0.0044                 0.0109                 0.0423
 IR Inten    --      0.5518                 0.0383                 0.0947

                      4                      5                      6
                      A                      A                      A
 Frequencies --     86.0194               101.4954               127.2645
 Red. masses --     14.7889                13.5201                15.6174
 Frc consts  --      0.0645                 0.0821                 0.1490
 IR Inten    --      0.5141                 0.7187                 0.2028

                      7                      8                      9
                      A                      A                      A
 Frequencies --    133.8080               191.0700               204.0396
 Red. masses --     26.8153                10.3963                23.4062
 Frc consts  --      0.2829                 0.2236                 0.5741
 IR Inten    --      0.8087                 0.6811                 0.1916

                     10                     11                     12
                      A                      A                      A
 Frequencies --    225.3668               234.1197               248.4943
 Red. masses --     22.2197                14.4839                26.5629
 Frc consts  --      0.6649                 0.4677                 0.9664
 IR Inten    --      1.6141                 0.3621                 2.1095

                     13                     14                     15
                      A                      A                      A
 Frequencies --    272.6282               293.8149               299.5883
 Red. masses --      7.9056                26.4453                34.0714
 Frc consts  --      0.3462                 1.3451                 1.8017
 IR Inten    --      6.2683                 1.5531                 1.5854

                     16                     17                     18
                      A                      A                      A
 Frequencies --    316.5453               335.4725               349.4257
 Red. masses --      1.2989                11.2861                20.5256
 Frc consts  --      0.0767                 0.7484                 1.4766
 IR Inten    --      7.1147                19.1661                77.3135

                     19                     20                     21
                      A                      A                      A
 Frequencies --    354.9438               358.8386               365.2105
 Red. masses --      1.2015                13.9861                18.3182
 Frc consts  --      0.0892                 1.0611                 1.4395
 IR Inten    --      9.8426                 6.6611                18.5956

                     22                     23                     24
                      A                      A                      A
 Frequencies --    437.7438               457.7421               511.9285
 Red. masses --     27.9651                25.9764                 1.0847
 Frc consts  --      3.1572                 3.2068                 0.1675
 IR Inten    --      2.0517                21.0727                 5.3915

                     25                     26                     27
                      A                      A                      A
 Frequencies --    584.2123               595.2014               622.0341
 Red. masses --      1.1009                 1.0752                 1.0708
 Frc consts  --      0.2214                 0.2244                 0.2441
 IR Inten    --      7.5110                 6.0625                15.0153

                     28                     29                     30
                      A                      A                      A
 Frequencies --    660.3699               691.1338              2581.7780
 Red. masses --      1.0643                 1.0636                 1.0381
 Frc consts  --      0.2734                 0.2993                 4.0768
 IR Inten    --      3.1701                 2.2324                12.1090

                     31                     32                     33
                      A                      A                      A
 Frequencies --   2601.4197              2652.9655              2680.0201
 Red. masses --      1.0380                 1.0383                 1.0383
 Frc consts  --      4.1388                 4.3054                 4.3938
 IR Inten    --      5.5011                 3.0694                 3.5019

 - Thermochemistry -
 -------------------
 Temperature   298.150 Kelvin.  Pressure   1.00000 Atm.
 Atom     1 has atomic number 42 and mass  97.90550

 Molecular mass:   489.58023 amu.
 Principal axes and moments of inertia in atomic units:
                           1         2         3
     Eigenvalues --  3367.693676255.110987952.95805
           X            0.98387   0.09820  -0.14950
           Y           -0.00976   0.86404   0.50333
           Z            0.17860  -0.49376   0.85106
 This molecule is an asymmetric top.
 Rotational symmetry number  1.
 Warning -- assumption of classical behavior for rotation
           may cause significant error
 Rotational temperatures (Kelvin)      0.02572     0.01385     0.01089
 Rotational constants (GHZ):           0.53590     0.28852     0.22693
 Zero-point vibrational energy     117915.0 (Joules/Mol)
                                   28.18236 (Kcal/Mol)
 Warning -- explicit consideration of  26 degrees of freedom as
           vibrations may cause significant error
 Vibrational temperatures:     29.66    63.93   106.62   123.76   146.03
          (Kelvin)            183.11   192.52   274.91   293.57   324.25
                              336.85   357.53   392.25   422.73   431.04
                              455.44   482.67   502.75   510.68   516.29
                              525.46   629.82   658.59   736.55   840.55
                              856.36   894.97   950.12   994.39  3714.60
                             3742.86  3817.03  3855.95

 Zero-point correction=                           0.044911 (Hartree/Particle)
 Thermal correction to Energy=                    0.060741
 Thermal correction to Enthalpy=                  0.061685
 Thermal correction to Gibbs Free Energy=        -0.001165
 Sum of electronic and zero-point Energies=          -2594.314654
 Sum of electronic and thermal Energies=             -2594.298825
 Sum of electronic and thermal Enthalpies=           -2594.297880
 Sum of electronic and thermal Free Energies=        -2594.360731

                     E (Thermal)             CV                S
                      KCal/Mol        Cal/Mol-Kelvin    Cal/Mol-Kelvin
 Total                   38.116             52.066            132.280
 Electronic               0.000              0.000              0.000
 Translational            0.889              2.981             44.453
 Rotational               0.889              2.981             33.482
 Vibrational             36.338             46.104             54.346
 Vibration     1          0.593              1.986              6.574
 Vibration     2          0.595              1.980              5.051
 Vibration     3          0.599              1.966              4.041
 Vibration     4          0.601              1.959              3.749
 Vibration     5          0.604              1.948              3.425
 Vibration     6          0.611              1.926              2.987
 Vibration     7          0.613              1.920              2.891
 Vibration     8          0.634              1.852              2.217
 Vibration     9          0.640              1.834              2.096
 Vibration    10          0.650              1.802              1.916
 Vibration    11          0.654              1.789              1.847
 Vibration    12          0.662              1.765              1.741
 Vibration    13          0.676              1.724              1.579
 Vibration    14          0.689              1.685              1.452
 Vibration    15          0.692              1.674              1.419
 Vibration    16          0.703              1.642              1.328
 Vibration    17          0.717              1.605              1.234
 Vibration    18          0.727              1.576              1.169
 Vibration    19          0.731              1.565              1.144
 Vibration    20          0.734              1.557              1.127
 Vibration    21          0.738              1.544              1.100
 Vibration    22          0.798              1.388              0.834
 Vibration    23          0.816              1.344              0.773
 Vibration    24          0.867              1.224              0.629
 Vibration    25          0.941              1.065              0.478
 Vibration    26          0.953              1.042              0.458

                           ! Non-Optimized Parameters !
 Normal termination of Gaussian 16 at Tue Oct 25 19:51:03 2022.
