 Gaussian 16, Revision C.01,
 Gaussian 16:  ES64L-G16RevC.01  3-Jul-2019

 ---------------------------------------
 # opt freq b3lyp/gen nosymm pseudo=read
 ---------------------------------------

 -------------------
 Title Card Required
 -------------------
 Symbolic Z-matrix:
 Charge =  0 Multiplicity = 1

 SCF Done:  E(RB3LYP) =  -2993.76203582     A.U. after   22 cycles
 SCF Done:  E(RB3LYP) =  -2993.76508833     A.U. after   16 cycles
 SCF Done:  E(RB3LYP) =  -2993.76575267     A.U. after   15 cycles
 SCF Done:  E(RB3LYP) =  -2993.76608194     A.U. after   15 cycles
 SCF Done:  E(RB3LYP) =  -2993.76620985     A.U. after   15 cycles
 SCF Done:  E(RB3LYP) =  -2993.76635243     A.U. after   15 cycles
 SCF Done:  E(RB3LYP) =  -2993.76646929     A.U. after   15 cycles
 SCF Done:  E(RB3LYP) =  -2993.76652186     A.U. after   14 cycles
 SCF Done:  E(RB3LYP) =  -2993.76658054     A.U. after   15 cycles
 SCF Done:  E(RB3LYP) =  -2993.76662066     A.U. after   15 cycles
 SCF Done:  E(RB3LYP) =  -2993.76665565     A.U. after   14 cycles
 SCF Done:  E(RB3LYP) =  -2993.76665997     A.U. after   13 cycles
 SCF Done:  E(RB3LYP) =  -2993.76666566     A.U. after   14 cycles
 SCF Done:  E(RB3LYP) =  -2993.76666900     A.U. after   14 cycles
 SCF Done:  E(RB3LYP) =  -2993.76666975     A.U. after   12 cycles
 SCF Done:  E(RB3LYP) =  -2993.76667035     A.U. after   12 cycles
 SCF Done:  E(RB3LYP) =  -2993.76667045     A.U. after   11 cycles
 SCF Done:  E(RB3LYP) =  -2993.76667052     A.U. after   11 cycles
 SCF Done:  E(RB3LYP) =  -2993.76667056     A.U. after   11 cycles
 Optimization completed.
    -- Stationary point found.
 Normal termination of Gaussian 16 at Tue Oct 25 19:58:03 2022.

 ------------------------------------------------------------------
 #N Geom=AllCheck Guess=TCheck SCRF=Check GenChk RB3LYP/ChkBas Freq
 ------------------------------------------------------------------

 Structure from the checkpoint file:  "Mo3_H2S.chk"
 -------------------
 Title Card Required
 -------------------
 Charge =  0 Multiplicity = 1

                          Input orientation:
 ---------------------------------------------------------------------
 Center     Atomic      Atomic             Coordinates (Angstroms)
 Number     Number       Type             X           Y           Z
 ---------------------------------------------------------------------
      1         42           0       -0.109273    1.853787   10.921218
      2         16           0        0.830832    4.121039   11.160091
      3         16           0       -1.881639    1.356888   12.348379
      4         16           0       -0.905254    1.502370    8.661286
      5         16           0        2.093351    0.935821   10.791858
      6          1           0        1.837370   -0.307213   10.327120
      7         42           0       -2.703042    1.862513   10.246253
      8         16           0       -4.931321    1.088720   10.556063
      9          1           0       -5.665544    2.094844   10.039528
     10         16           0       -3.522530    3.888817    8.984978
     11          1           0       -3.548759    3.379387    7.727883
     12          1           0        1.997210    4.139162   10.460081
     13         42           0       -1.115407    3.686811    9.639250
     14         16           0       -0.022965    5.162935    7.581916
     15          1           0       -0.515945    4.503495    6.515373
     16          1           0        1.181660    4.562998    7.500461
 ---------------------------------------------------------------------

 SCF Done:  E(RB3LYP) =  -2993.76667056     A.U. after    1 cycles

 Alpha  occ. eigenvalues --  -88.94364 -88.89710 -88.89481 -88.88572 -88.86760
 Alpha  occ. eigenvalues --  -88.84696 -88.84559  -8.02067  -7.97350  -7.97138
 Alpha  occ. eigenvalues --   -7.96284  -7.94568  -7.92481  -7.92318  -5.98400
 Alpha  occ. eigenvalues --   -5.98098  -5.97571  -5.93423  -5.93339  -5.93306
 Alpha  occ. eigenvalues --   -5.93273  -5.92977  -5.92894  -5.92576  -5.92133
 Alpha  occ. eigenvalues --   -5.92010  -5.90612  -5.90502  -5.90424  -5.88748
 Alpha  occ. eigenvalues --   -5.88625  -5.88323  -5.88224  -5.88188  -5.88003
 Alpha  occ. eigenvalues --   -2.52687  -2.52086  -2.51228  -1.57656  -1.56000
 Alpha  occ. eigenvalues --   -1.55461  -1.54748  -1.54148  -1.53475  -1.53425
 Alpha  occ. eigenvalues --   -1.52126  -1.51495  -0.81613  -0.74971  -0.74154
 Alpha  occ. eigenvalues --   -0.72626  -0.70206  -0.70030  -0.69144  -0.51333
 Alpha  occ. eigenvalues --   -0.45275  -0.44378  -0.44103  -0.41309  -0.40783
 Alpha  occ. eigenvalues --   -0.38769  -0.37833  -0.37266  -0.36338  -0.35743
 Alpha  occ. eigenvalues --   -0.34867  -0.33532  -0.32825  -0.32250  -0.31427
 Alpha  occ. eigenvalues --   -0.31057  -0.30415  -0.28793  -0.28092  -0.26983
 Alpha  occ. eigenvalues --   -0.25371  -0.24938  -0.23459  -0.23097  -0.22425
 Alpha virt. eigenvalues --   -0.12635  -0.12301  -0.11635  -0.10366  -0.10188
 Alpha virt. eigenvalues --   -0.09025  -0.08091  -0.07311  -0.06020  -0.04119
 Alpha virt. eigenvalues --   -0.03580  -0.03273  -0.01331  -0.00314   0.00537

 Mulliken charges:
               1
     1  Mo  -0.046863
     2  S   -0.072670
     3  S   -0.113669
     4  S    0.050380
     5  S   -0.206816
     6  H    0.078584
     7  Mo  -0.017309
     8  S   -0.167133
     9  H    0.081115
    10  S   -0.118029
    11  H    0.090651
    12  H    0.081551
    13  Mo   0.115312
    14  S   -0.027020
    15  H    0.135030
    16  H    0.136886
 Sum of Mulliken charges =  -0.00000

 Dipole moment (field-independent basis, Debye):
    X=              1.9384    Y=              4.1186    Z=             -5.9978  Tot=              7.5296
 Quadrupole moment (field-independent basis, Debye-Ang):
   XX=           -179.0172   YY=           -140.8224   ZZ=           -277.1458
   XY=              0.7539   XZ=             24.3127   YZ=             22.4704

  Exact polarizability:     353.947      13.878     223.715       7.539     -39.190     216.702
 Approx polarizability:     871.113      50.442     638.774      29.509    -147.740     541.524

                      1                      2                      3
                      A                      A                      A
 Frequencies --     24.9513                29.3354                53.0488
 Red. masses --     15.6371                 9.6209                 9.8770
 Frc consts  --      0.0057                 0.0049                 0.0164
 IR Inten    --      0.6034                 0.8062                 0.3651

                      4                      5                      6
                      A                      A                      A
 Frequencies --     61.7735                76.4182                80.8518
 Red. masses --      5.4238                 2.6073                 2.3316
 Frc consts  --      0.0122                 0.0090                 0.0090
 IR Inten    --      1.7969                 4.2003                 5.4236

                      7                      8                      9
                      A                      A                      A
 Frequencies --     92.2306               103.5888               125.4121
 Red. masses --      5.7452                 9.2512                14.5428
 Frc consts  --      0.0288                 0.0585                 0.1348
 IR Inten    --      0.9125                 1.4245                 0.9442

                     10                     11                     12
                      A                      A                      A
 Frequencies --    127.9285               156.7844               199.8207
 Red. masses --     20.4209                26.0053                11.2913
 Frc consts  --      0.1969                 0.3766                 0.2656
 IR Inten    --      0.7452                 1.4866                 1.8642

                     13                     14                     15
                      A                      A                      A
 Frequencies --    207.5525               225.3261               236.1960
 Red. masses --     21.6436                22.0391                14.1631
 Frc consts  --      0.5493                 0.6593                 0.4655
 IR Inten    --      0.3305                 1.3422                 0.9015

                     16                     17                     18
                      A                      A                      A
 Frequencies --    250.1421               268.0462               289.6248
 Red. masses --     11.2846                 3.9171                30.0978
 Frc consts  --      0.4160                 0.1658                 1.4875
 IR Inten    --      7.9356                 7.2881                 1.6716

                     19                     20                     21
                      A                      A                      A
 Frequencies --    300.8505               301.9076               329.7874
 Red. masses --      3.0335                 3.3902                 3.1096
 Frc consts  --      0.1618                 0.1821                 0.1993
 IR Inten    --      3.4766                 1.0790                32.4152

                     22                     23                     24
                      A                      A                      A
 Frequencies --    336.4721               342.5418               356.4645
 Red. masses --      1.8140                12.2025                20.2547
 Frc consts  --      0.1210                 0.8436                 1.5164
 IR Inten    --     16.3905                55.4413                 5.7091

                     25                     26                     27
                      A                      A                      A
 Frequencies --    360.1709               382.5639               435.0145
 Red. masses --      6.8574                 1.1194                 3.6978
 Frc consts  --      0.5241                 0.0965                 0.4123
 IR Inten    --     16.0555                26.9140                 2.2141

                     28                     29                     30
                      A                      A                      A
 Frequencies --    439.6019               455.3840               535.2587
 Red. masses --      1.4260                23.6410                 1.0829
 Frc consts  --      0.1624                 2.8885                 0.1828
 IR Inten    --      3.6401                20.6513                 4.8135

                     31                     32                     33
                      A                      A                      A
 Frequencies --    586.2610               620.1095               632.0058
 Red. masses --      1.0704                 1.0971                 1.0661
 Frc consts  --      0.2168                 0.2486                 0.2509
 IR Inten    --      6.5481                 4.9233                15.3649

                     34                     35                     36
                      A                      A                      A
 Frequencies --    661.5296               696.5838              1220.3477
 Red. masses --      1.0649                 1.0626                 1.0398
 Frc consts  --      0.2746                 0.3038                 0.9123
 IR Inten    --      3.7947                 1.2237                 1.8485

                     37                     38                     39
                      A                      A                      A
 Frequencies --   2552.1113              2596.6104              2657.7900
 Red. masses --      1.0382                 1.0381                 1.0383
 Frc consts  --      3.9842                 4.1238                 4.3213
 IR Inten    --     35.2488                12.6966                 3.2355

                     40                     41                     42
                      A                      A                      A
 Frequencies --   2682.9953              2692.0661              2709.1177
 Red. masses --      1.0383                 1.0354                 1.0403
 Frc consts  --      4.4038                 4.4209                 4.4984
 IR Inten    --      4.6485                 2.0066                 1.2619

 - Thermochemistry -
 -------------------
 Temperature   298.150 Kelvin.  Pressure   1.00000 Atm.
 Atom     1 has atomic number 42 and mass  97.90550

 Molecular mass:   523.56795 amu.
 Principal axes and moments of inertia in atomic units:
                           1         2         3
     Eigenvalues --  5120.338346622.778079786.37207
           X            0.97551  -0.18135  -0.12449
           Y            0.21886   0.74341   0.63202
           Z           -0.02207  -0.64379   0.76489
 This molecule is an asymmetric top.
 Rotational symmetry number  1.
 Warning -- assumption of classical behavior for rotation
           may cause significant error
 Rotational temperatures (Kelvin)      0.01692     0.01308     0.00885
 Rotational constants (GHZ):           0.35247     0.27251     0.18441
 Zero-point vibrational energy     164442.1 (Joules/Mol)
                                   39.30261 (Kcal/Mol)
 Warning -- explicit consideration of  32 degrees of freedom as
           vibrations may cause significant error
 Vibrational temperatures:     35.90    42.21    76.33    88.88   109.95
          (Kelvin)            116.33   132.70   149.04   180.44   184.06
                              225.58   287.50   298.62   324.19   339.83
                              359.90   385.66   416.71   432.86   434.38
                              474.49   484.11   492.84   512.87   518.21
                              550.42   625.89   632.49   655.20   770.12
                              843.50   892.20   909.32   951.79  1002.23
                             1755.81  3671.92  3735.94  3823.97  3860.23
                             3873.28  3897.82

 Zero-point correction=                           0.062633 (Hartree/Particle)
 Thermal correction to Energy=                    0.082148
 Thermal correction to Enthalpy=                  0.083092
 Thermal correction to Gibbs Free Energy=         0.011353
 Sum of electronic and zero-point Energies=          -2993.704038
 Sum of electronic and thermal Energies=             -2993.684523
 Sum of electronic and thermal Enthalpies=           -2993.683579
 Sum of electronic and thermal Free Energies=        -2993.755318

                     E (Thermal)             CV                S
                      KCal/Mol        Cal/Mol-Kelvin    Cal/Mol-Kelvin
 Total                   51.549             62.927            150.987
 Electronic               0.000              0.000              0.000
 Translational            0.889              2.981             44.653
 Rotational               0.889              2.981             34.161
 Vibrational             49.771             56.965             72.174
 Vibration     1          0.593              1.985              6.195
 Vibration     2          0.593              1.984              5.874
 Vibration     3          0.596              1.976              4.700
 Vibration     4          0.597              1.973              4.400
 Vibration     5          0.599              1.965              3.981
 Vibration     6          0.600              1.962              3.870
 Vibration     7          0.602              1.955              3.612
 Vibration     8          0.605              1.946              3.386
 Vibration     9          0.610              1.928              3.015
 Vibration    10          0.611              1.925              2.977
 Vibration    11          0.620              1.895              2.588
 Vibration    12          0.638              1.840              2.135
 Vibration    13          0.641              1.829              2.065
 Vibration    14          0.650              1.802              1.916
 Vibration    15          0.655              1.785              1.831
 Vibration    16          0.663              1.763              1.730
 Vibration    17          0.673              1.732              1.609
 Vibration    18          0.686              1.693              1.476
 Vibration    19          0.693              1.672              1.412
 Vibration    20          0.694              1.670              1.406
 Vibration    21          0.713              1.616              1.261
 Vibration    22          0.717              1.603              1.229
 Vibration    23          0.722              1.590              1.200
 Vibration    24          0.732              1.562              1.137
 Vibration    25          0.735              1.554              1.121
 Vibration    26          0.752              1.507              1.029
 Vibration    27          0.796              1.394              0.842
 Vibration    28          0.800              1.384              0.828
 Vibration    29          0.814              1.349              0.780
 Vibration    30          0.890              1.172              0.576
 Vibration    31          0.943              1.061              0.474
 Vibration    32          0.980              0.989              0.416

                           ! Non-Optimized Parameters !
 Normal termination of Gaussian 16 at Tue Oct 25 19:58:39 2022.
