 Gaussian 16, Revision C.01,
 Gaussian 16:  ES64L-G16RevC.01  3-Jul-2019

 --------------------------------------------------------
 # opt=(qst2,redundant) freq b3lyp/gen nosymm pseudo=read
 --------------------------------------------------------

 -------------------
 Title Card Required
 -------------------
 Symbolic Z-matrix:
 Charge =  0 Multiplicity = 1

 -------
 product
 -------
 Symbolic Z-matrix:
 Charge =  0 Multiplicity = 1

 SCF Done:  E(RB3LYP) =  -2993.68864719     A.U. after   24 cycles
 SCF Done:  E(RB3LYP) =  -2993.68830340     A.U. after   21 cycles
 SCF Done:  E(RB3LYP) =  -2993.70274849     A.U. after   20 cycles
 SCF Done:  E(RB3LYP) =  -2993.71428364     A.U. after   19 cycles
 SCF Done:  E(RB3LYP) =  -2993.72272020     A.U. after   19 cycles
 SCF Done:  E(RB3LYP) =  -2993.72739363     A.U. after   19 cycles
 SCF Done:  E(RB3LYP) =  -2993.72922534     A.U. after   19 cycles
 SCF Done:  E(RB3LYP) =  -2993.73103684     A.U. after   18 cycles
 SCF Done:  E(RB3LYP) =  -2993.73202965     A.U. after   17 cycles
 SCF Done:  E(RB3LYP) =  -2993.73275029     A.U. after   18 cycles
 SCF Done:  E(RB3LYP) =  -2993.73504252     A.U. after   15 cycles
 SCF Done:  E(RB3LYP) =  -2993.73504298     A.U. after   13 cycles
 SCF Done:  E(RB3LYP) =  -2993.73504370     A.U. after   14 cycles
 SCF Done:  E(RB3LYP) =  -2993.73504391     A.U. after   12 cycles
 SCF Done:  E(RB3LYP) =  -2993.73504414     A.U. after   13 cycles
 SCF Done:  E(RB3LYP) =  -2993.73504421     A.U. after   12 cycles
 SCF Done:  E(RB3LYP) =  -2993.73504425     A.U. after   12 cycles
 SCF Done:  E(RB3LYP) =  -2993.73504430     A.U. after   12 cycles
 SCF Done:  E(RB3LYP) =  -2993.73504438     A.U. after   13 cycles
 Optimization completed.
    -- Stationary point found.
 Normal termination of Gaussian 16 at Fri Jul  7 19:50:27 2023.

 ------------------------------------------------------------------
 #N Geom=AllCheck Guess=TCheck SCRF=Check GenChk RB3LYP/ChkBas Freq
 ------------------------------------------------------------------

 Structure from the checkpoint file:  "/localscratch/chegho/Gau-191077.chk"
 -------------------
 Title Card Required
 -------------------
 Charge =  0 Multiplicity = 1

                          Input orientation:
 ---------------------------------------------------------------------
 Center     Atomic      Atomic             Coordinates (Angstroms)
 Number     Number       Type             X           Y           Z
 ---------------------------------------------------------------------
      1         42           0        0.082729    2.011800   11.015936
      2         16           0        0.714911    4.394129   11.178590
      3         16           0       -1.671806    1.740472   12.489480
      4         16           0       -0.799905    1.478034    8.813884
      5         16           0        1.801452    0.434875   10.772328
      6          1           0        1.659543   -0.140420    9.560946
      7         42           0       -2.521988    2.031751   10.345722
      8         16           0       -4.668031    1.057877   10.309619
      9          1           0       -5.518797    1.997046    9.844424
     10         16           0       -3.363445    3.959123    8.988485
     11          1           0       -3.593762    3.364809    7.791892
     12          1           0        1.963403    4.451608   10.651879
     13         42           0       -0.905405    3.784388    9.394140
     14         16           0        0.043038    4.997918    7.389077
     15          1           0       -0.807554    4.491608    6.467695
     16          1           0        0.604364    3.777359    8.447643
 ---------------------------------------------------------------------

 SCF Done:  E(RB3LYP) =  -2993.73504438     A.U. after    1 cycles

 Alpha  occ. eigenvalues --  -88.90884 -88.90550 -88.89634 -88.88808 -88.88070
 Alpha  occ. eigenvalues --  -88.87418 -88.86066  -7.98547  -7.98231  -7.97235
 Alpha  occ. eigenvalues --   -7.96500  -7.95938  -7.95262  -7.93830  -5.94799
 Alpha  occ. eigenvalues --   -5.94397  -5.94317  -5.94216  -5.94179  -5.94155
 Alpha  occ. eigenvalues --   -5.93565  -5.93260  -5.92779  -5.92756  -5.92347
 Alpha  occ. eigenvalues --   -5.92243  -5.91947  -5.91896  -5.91794  -5.91527
 Alpha  occ. eigenvalues --   -5.91129  -5.90974  -5.90092  -5.89644  -5.89611
 Alpha  occ. eigenvalues --   -2.53857  -2.52858  -2.51683  -1.57785  -1.56854
 Alpha  occ. eigenvalues --   -1.56415  -1.55770  -1.54870  -1.54453  -1.54146
 Alpha  occ. eigenvalues --   -1.53100  -1.52553  -0.76236  -0.75019  -0.74402
 Alpha  occ. eigenvalues --   -0.73740  -0.72651  -0.71249  -0.70696  -0.48239
 Alpha  occ. eigenvalues --   -0.46216  -0.44229  -0.43758  -0.41964  -0.39949
 Alpha  occ. eigenvalues --   -0.39412  -0.38590  -0.37544  -0.36954  -0.36160
 Alpha  occ. eigenvalues --   -0.34861  -0.33857  -0.33564  -0.32922  -0.32521
 Alpha  occ. eigenvalues --   -0.32350  -0.30668  -0.29568  -0.29421  -0.27588
 Alpha  occ. eigenvalues --   -0.26491  -0.25682  -0.25326  -0.23277  -0.22067
 Alpha virt. eigenvalues --   -0.14419  -0.13644  -0.12509  -0.11491  -0.10887
 Alpha virt. eigenvalues --   -0.10304  -0.08984  -0.08279  -0.07023  -0.04672
 Alpha virt. eigenvalues --   -0.04263  -0.01595  -0.00549   0.00163   0.01110

 Mulliken charges:
               1
     1  Mo  -0.033408
     2  S   -0.034350
     3  S   -0.119069
     4  S    0.103067
     5  S   -0.157975
     6  H    0.095767
     7  Mo   0.044684
     8  S   -0.156415
     9  H    0.082074
    10  S   -0.105220
    11  H    0.096729
    12  H    0.106503
    13  Mo  -0.099647
    14  S   -0.024381
    15  H    0.102445
    16  H    0.099195
 Sum of Mulliken charges =  -0.00000

 Dipole moment (field-independent basis, Debye):
    X=              1.3993    Y=              1.5084    Z=             -2.3851  Tot=              3.1499
 Quadrupole moment (field-independent basis, Debye-Ang):
   XX=           -168.4635   YY=           -161.4924   ZZ=           -209.0560
   XY=             -0.5828   XZ=             22.3512   YZ=             12.5743

  Exact polarizability:     342.996      15.727     251.163       5.136     -56.641     249.683
 Approx polarizability:     901.407      79.312     668.097       0.121    -195.857     677.376

 ******    1 imaginary frequencies (negative Signs) ******

                      1                      2                      3
                      A                      A                      A
 Frequencies --   -874.6723                21.1813                47.4428
 Red. masses --      1.0656                13.3835                14.9122
 Frc consts  --      0.4803                 0.0035                 0.0198
 IR Inten    --   1715.7370                 0.2481                 1.8447

                      4                      5                      6
                      A                      A                      A
 Frequencies --     50.3726                68.2334                76.5084
 Red. masses --     11.0708                14.0093                12.5611
 Frc consts  --      0.0166                 0.0384                 0.0433
 IR Inten    --      1.0065                 0.2110                 0.4856

                      7                      8                      9
                      A                      A                      A
 Frequencies --     98.4315               116.4966               134.1359
 Red. masses --     14.8819                15.7058                19.3957
 Frc consts  --      0.0850                 0.1256                 0.2056
 IR Inten    --      1.8604                 0.4251                 0.3250

                     10                     11                     12
                      A                      A                      A
 Frequencies --    141.9324               185.7154               195.2982
 Red. masses --     14.9353                18.0175                15.6415
 Frc consts  --      0.1773                 0.3661                 0.3515
 IR Inten    --      1.4809                 2.4940                 0.7135

                     13                     14                     15
                      A                      A                      A
 Frequencies --    218.0464               230.4923               244.5582
 Red. masses --     12.4953                16.7486                10.3420
 Frc consts  --      0.3500                 0.5243                 0.3644
 IR Inten    --      4.1652                 0.5919                 4.5420

                     16                     17                     18
                      A                      A                      A
 Frequencies --    267.5715               284.6346               298.2935
 Red. masses --      1.2559                 8.9452                17.9248
 Frc consts  --      0.0530                 0.4270                 0.9397
 IR Inten    --     24.5918                15.8983                13.9970

                     19                     20                     21
                      A                      A                      A
 Frequencies --    303.9157               309.8987               335.0671
 Red. masses --     14.6590                26.5099                16.0839
 Frc consts  --      0.7977                 1.5000                 1.0639
 IR Inten    --     23.8574                 1.2615                14.6216

                     22                     23                     24
                      A                      A                      A
 Frequencies --    340.8029               355.1452               362.2186
 Red. masses --     18.1716                 5.2003                 3.0514
 Frc consts  --      1.2435                 0.3865                 0.2359
 IR Inten    --     38.6777                22.4749                56.3591

                     25                     26                     27
                      A                      A                      A
 Frequencies --    373.8726               378.3203               438.9079
 Red. masses --      1.1640                 2.1022                24.9728
 Frc consts  --      0.0959                 0.1773                 2.8344
 IR Inten    --     19.1154                31.8613                 5.3363

                     28                     29                     30
                      A                      A                      A
 Frequencies --    455.0890               536.4616               576.4571
 Red. masses --     25.9607                 1.0703                 1.0770
 Frc consts  --      3.1678                 0.1815                 0.2109
 IR Inten    --     19.8517                 3.8415                14.0289

                     31                     32                     33
                      A                      A                      A
 Frequencies --    604.5699               623.4185               633.8397
 Red. masses --      1.0656                 1.0616                 1.0780
 Frc consts  --      0.2295                 0.2431                 0.2552
 IR Inten    --     21.2063                11.5235                12.1169

                     34                     35                     36
                      A                      A                      A
 Frequencies --    651.9796               696.3188               786.8140
 Red. masses --      1.0745                 1.0537                 1.0411
 Frc consts  --      0.2691                 0.3010                 0.3797
 IR Inten    --      8.1095                 6.7141                51.8985

                     37                     38                     39
                      A                      A                      A
 Frequencies --   1519.4453              2593.9377              2604.4006
 Red. masses --      1.0183                 1.0388                 1.0381
 Frc consts  --      1.3851                 4.1181                 4.1487
 IR Inten    --     40.2552                12.0793                 7.8779

                     40                     41                     42
                      A                      A                      A
 Frequencies --   2647.1214              2665.7238              2677.6881
 Red. masses --      1.0392                 1.0384                 1.0387
 Frc consts  --      4.2905                 4.3476                 4.3878
 IR Inten    --      1.8737                 5.7531                 0.4564

 - Thermochemistry -
 -------------------
 Temperature   298.150 Kelvin.  Pressure   1.00000 Atm.
 Atom     1 has atomic number 42 and mass  97.90550

 Molecular mass:   523.56795 amu.
 Principal axes and moments of inertia in atomic units:
                           1         2         3
     Eigenvalues --  5555.064276229.746329369.13360
           X            0.98280  -0.13072  -0.13041
           Y            0.18427   0.73962   0.64731
           Z            0.01183  -0.66021   0.75099
 This molecule is an asymmetric top.
 Rotational symmetry number  1.
 Warning -- assumption of classical behavior for rotation
           may cause significant error
 Rotational temperatures (Kelvin)      0.01559     0.01390     0.00924
 Rotational constants (GHZ):           0.32488     0.28970     0.19263
    1 imaginary frequencies ignored.
 Zero-point vibrational energy     156416.3 (Joules/Mol)
                                   37.38439 (Kcal/Mol)
 Warning -- explicit consideration of  30 degrees of freedom as
           vibrations may cause significant error
 Vibrational temperatures:     30.48    68.26    72.47    98.17   110.08
          (Kelvin)            141.62   167.61   192.99   204.21   267.20
                              280.99   313.72   331.63   351.86   384.98
                              409.53   429.18   437.27   445.88   482.09
                              490.34   510.97   521.15   537.92   544.32
                              631.49   654.77   771.85   829.39   869.84
                              896.96   911.95   938.05  1001.85  1132.05
                             2186.14  3732.10  3747.15  3808.62  3835.38
                             3852.60

 Zero-point correction=                           0.059576 (Hartree/Particle)
 Thermal correction to Energy=                    0.077975
 Thermal correction to Enthalpy=                  0.078919
 Thermal correction to Gibbs Free Energy=         0.010246
 Sum of electronic and zero-point Energies=          -2993.675469
 Sum of electronic and thermal Energies=             -2993.657070
 Sum of electronic and thermal Enthalpies=           -2993.656126
 Sum of electronic and thermal Free Energies=        -2993.724798

                     E (Thermal)             CV                S
                      KCal/Mol        Cal/Mol-Kelvin    Cal/Mol-Kelvin
 Total                   48.930             60.888            144.534
 Electronic               0.000              0.000              0.000
 Translational            0.889              2.981             44.653
 Rotational               0.889              2.981             34.138
 Vibrational             47.152             54.927             65.743
 Vibration     1          0.593              1.985              6.520
 Vibration     2          0.595              1.979              4.921
 Vibration     3          0.595              1.977              4.803
 Vibration     4          0.598              1.969              4.204
 Vibration     5          0.599              1.965              3.979
 Vibration     6          0.604              1.950              3.485
 Vibration     7          0.608              1.936              3.158
 Vibration     8          0.613              1.919              2.886
 Vibration     9          0.615              1.911              2.778
 Vibration    10          0.632              1.859              2.270
 Vibration    11          0.636              1.846              2.177
 Vibration    12          0.646              1.814              1.975
 Vibration    13          0.652              1.794              1.875
 Vibration    14          0.660              1.772              1.769
 Vibration    15          0.673              1.733              1.612
 Vibration    16          0.683              1.702              1.506
 Vibration    17          0.691              1.677              1.426
 Vibration    18          0.695              1.666              1.395
 Vibration    19          0.699              1.655              1.363
 Vibration    20          0.716              1.605              1.236
 Vibration    21          0.720              1.594              1.208
 Vibration    22          0.731              1.565              1.143
 Vibration    23          0.736              1.550              1.113
 Vibration    24          0.745              1.526              1.064
 Vibration    25          0.749              1.516              1.046
 Vibration    26          0.799              1.385              0.830
 Vibration    27          0.813              1.350              0.781
 Vibration    28          0.891              1.169              0.573
 Vibration    29          0.933              1.082              0.492
 Vibration    30          0.963              1.022              0.442

                           ! Non-Optimized Parameters !
 Normal termination of Gaussian 16 at Fri Jul  7 19:51:18 2023.
