 Gaussian 16, Revision C.01,
 Gaussian 16:  ES64L-G16RevC.01  3-Jul-2019

 ---------------------------------------
 # opt freq b3lyp/gen nosymm pseudo=read
 ---------------------------------------

 -------------------
 Title Card Required
 -------------------
 Symbolic Z-matrix:
 Charge =  0 Multiplicity = 1

 SCF Done:  E(RB3LYP) =  -2993.74207221     A.U. after   23 cycles
 SCF Done:  E(RB3LYP) =  -2993.75041223     A.U. after   17 cycles
 SCF Done:  E(RB3LYP) =  -2993.76256902     A.U. after   18 cycles
 SCF Done:  E(RB3LYP) =  -2993.76583263     A.U. after   17 cycles
 SCF Done:  E(RB3LYP) =  -2993.76914610     A.U. after   18 cycles
 SCF Done:  E(RB3LYP) =  -2993.77104219     A.U. after   18 cycles
 SCF Done:  E(RB3LYP) =  -2993.77328447     A.U. after   18 cycles
 SCF Done:  E(RB3LYP) =  -2993.77511799     A.U. after   17 cycles
 SCF Done:  E(RB3LYP) =  -2993.77665220     A.U. after   17 cycles
 SCF Done:  E(RB3LYP) =  -2993.77753397     A.U. after   17 cycles
 SCF Done:  E(RB3LYP) =  -2993.77926097     A.U. after   14 cycles
 SCF Done:  E(RB3LYP) =  -2993.77929020     A.U. after   15 cycles
 SCF Done:  E(RB3LYP) =  -2993.77929596     A.U. after   14 cycles
 SCF Done:  E(RB3LYP) =  -2993.77929757     A.U. after   12 cycles
 SCF Done:  E(RB3LYP) =  -2993.77929839     A.U. after   13 cycles
 SCF Done:  E(RB3LYP) =  -2993.77929870     A.U. after   12 cycles
 SCF Done:  E(RB3LYP) =  -2993.77929897     A.U. after   12 cycles
 SCF Done:  E(RB3LYP) =  -2993.77929914     A.U. after   12 cycles
 SCF Done:  E(RB3LYP) =  -2993.77929924     A.U. after   12 cycles
 Optimization completed.
    -- Stationary point found.
 Normal termination of Gaussian 16 at Sat Jul  8 16:38:53 2023.

 ------------------------------------------------------------------
 #N Geom=AllCheck Guess=TCheck SCRF=Check GenChk RB3LYP/ChkBas Freq
 ------------------------------------------------------------------

 Structure from the checkpoint file:  "/localscratch/chegho/Gau-127348.chk"
 -------------------
 Title Card Required
 -------------------
 Charge =  0 Multiplicity = 1

                          Input orientation:
 ---------------------------------------------------------------------
 Center     Atomic      Atomic             Coordinates (Angstroms)
 Number     Number       Type             X           Y           Z
 ---------------------------------------------------------------------
      1         42           0        0.168876    1.958014   11.168307
      2         16           0        0.543057    4.416817   11.107107
      3         16           0       -1.635309    1.948619   12.559912
      4         16           0       -0.597975    1.249399    8.978052
      5         16           0        1.743771    0.251355   11.188199
      6          1           0        1.678502   -0.423059   10.020472
      7         42           0       -2.359531    2.111404   10.319416
      8         16           0       -4.293812    1.056720    9.488193
      9          1           0       -4.929200    2.076532    8.866469
     10         16           0       -3.008259    4.362602    9.708337
     11          1           0       -3.766807    4.252200    8.581568
     12          1           0        1.807826    4.449401   10.631168
     13         42           0       -0.635404    3.582400    9.088655
     14         16           0       -0.692177    4.383778    6.883749
     15          1           0       -2.004148    4.696092    6.759052
     16          1           0        0.975337    3.376102    8.575085
 ---------------------------------------------------------------------

 SCF Done:  E(RB3LYP) =  -2993.77929924     A.U. after    1 cycles

 Alpha  occ. eigenvalues --  -88.91439 -88.90749 -88.89501 -88.89196 -88.88661
 Alpha  occ. eigenvalues --  -88.86990 -88.86842  -7.99120  -7.98439  -7.97101
 Alpha  occ. eigenvalues --   -7.97085  -7.96526  -7.94777  -7.94545  -5.95349
 Alpha  occ. eigenvalues --   -5.94992  -5.94883  -5.94419  -5.94391  -5.94355
 Alpha  occ. eigenvalues --   -5.93390  -5.93085  -5.93029  -5.92959  -5.92956
 Alpha  occ. eigenvalues --   -5.92841  -5.92779  -5.92391  -5.92247  -5.91056
 Alpha  occ. eigenvalues --   -5.90820  -5.90618  -5.90507  -5.90387  -5.90288
 Alpha  occ. eigenvalues --   -2.54848  -2.53827  -2.52617  -1.58609  -1.57796
 Alpha  occ. eigenvalues --   -1.57206  -1.56564  -1.55802  -1.55306  -1.54980
 Alpha  occ. eigenvalues --   -1.54654  -1.53342  -0.76914  -0.74920  -0.74432
 Alpha  occ. eigenvalues --   -0.73409  -0.72412  -0.71809  -0.71776  -0.47101
 Alpha  occ. eigenvalues --   -0.45362  -0.44717  -0.42340  -0.41969  -0.40112
 Alpha  occ. eigenvalues --   -0.39555  -0.39250  -0.38317  -0.37947  -0.35891
 Alpha  occ. eigenvalues --   -0.35561  -0.34278  -0.33756  -0.33036  -0.32832
 Alpha  occ. eigenvalues --   -0.32081  -0.31210  -0.30410  -0.28978  -0.28418
 Alpha  occ. eigenvalues --   -0.28132  -0.26665  -0.26197  -0.25518  -0.23192
 Alpha virt. eigenvalues --   -0.15226  -0.14465  -0.13248  -0.12736  -0.11335
 Alpha virt. eigenvalues --   -0.09549  -0.09470  -0.08778  -0.07724  -0.06402
 Alpha virt. eigenvalues --   -0.03473  -0.02009  -0.00440   0.00153   0.01034

 Mulliken charges:
               1
     1  Mo   0.045164
     2  S    0.001920
     3  S   -0.105888
     4  S    0.151803
     5  S   -0.138101
     6  H    0.102188
     7  Mo   0.024052
     8  S   -0.139953
     9  H    0.074913
    10  S    0.007644
    11  H    0.065876
    12  H    0.133799
    13  Mo  -0.186572
    14  S   -0.109556
    15  H    0.060285
    16  H    0.012426
 Sum of Mulliken charges =  -0.00000

 Dipole moment (field-independent basis, Debye):
    X=              0.7384    Y=              0.5971    Z=              0.5755  Tot=              1.1104
 Quadrupole moment (field-independent basis, Debye-Ang):
   XX=           -161.0336   YY=           -162.5618   ZZ=           -158.8690
   XY=             -3.4117   XZ=             15.1730   YZ=              9.2627

  Exact polarizability:     309.226      -9.163     246.183      28.011     -44.435     260.699
 Approx polarizability:     842.762      15.242     610.540      43.254    -138.695     696.792

                      1                      2                      3
                      A                      A                      A
 Frequencies --     47.6414                52.7779                63.6749
 Red. masses --     18.3677                13.6695                18.7550
 Frc consts  --      0.0246                 0.0224                 0.0448
 IR Inten    --      0.6377                 0.0467                 0.1691

                      4                      5                      6
                      A                      A                      A
 Frequencies --     71.6579                89.6672               118.4346
 Red. masses --     13.5710                12.6071                13.4231
 Frc consts  --      0.0411                 0.0597                 0.1109
 IR Inten    --      0.1638                 0.2285                 1.0793

                      7                      8                      9
                      A                      A                      A
 Frequencies --    120.4351               123.7559               144.1988
 Red. masses --     18.1190                22.1155                14.2468
 Frc consts  --      0.1548                 0.1996                 0.1745
 IR Inten    --      2.8454                 0.3595                 0.0058

                     10                     11                     12
                      A                      A                      A
 Frequencies --    167.9816               198.0658               211.0471
 Red. masses --     11.5135                 4.5253                 2.8952
 Frc consts  --      0.1914                 0.1046                 0.0760
 IR Inten    --      1.4403                 3.8972                 8.4792

                     13                     14                     15
                      A                      A                      A
 Frequencies --    219.5295               240.7675               249.2510
 Red. masses --      4.8216                 5.3320                 8.6603
 Frc consts  --      0.1369                 0.1821                 0.3170
 IR Inten    --      4.8709                 0.2771                 1.5058

                     16                     17                     18
                      A                      A                      A
 Frequencies --    281.9035               309.7571               318.2367
 Red. masses --     14.4500                11.8945                 1.3007
 Frc consts  --      0.6766                 0.6724                 0.0776
 IR Inten    --      2.8626                 2.7050                11.2270

                     19                     20                     21
                      A                      A                      A
 Frequencies --    325.3562               332.2784               348.4151
 Red. masses --     21.9357                13.0363                 7.3044
 Frc consts  --      1.3681                 0.8480                 0.5224
 IR Inten    --      7.7776                 3.1981                21.1216

                     22                     23                     24
                      A                      A                      A
 Frequencies --    363.9077               368.7227               378.5286
 Red. masses --     20.0736                22.9069                 5.8329
 Frc consts  --      1.5662                 1.8349                 0.4924
 IR Inten    --     32.3039                56.8495                27.2795

                     25                     26                     27
                      A                      A                      A
 Frequencies --    394.0648               442.2172               457.6834
 Red. masses --      1.3089                23.5978                17.0843
 Frc consts  --      0.1198                 2.7189                 2.1085
 IR Inten    --      3.8728                13.8205                13.5380

                     28                     29                     30
                      A                      A                      A
 Frequencies --    555.0823               575.4656               598.6573
 Red. masses --      1.0641                 1.0640                 1.0706
 Frc consts  --      0.1932                 0.2076                 0.2261
 IR Inten    --      9.0320                 6.9706                13.5030

                     31                     32                     33
                      A                      A                      A
 Frequencies --    640.8434               662.4101               665.8066
 Red. masses --      1.0714                 1.0493                 1.0595
 Frc consts  --      0.2592                 0.2713                 0.2767
 IR Inten    --     15.6814                 3.4118                31.6908

                     34                     35                     36
                      A                      A                      A
 Frequencies --    711.8348               766.7234               782.1218
 Red. masses --      1.0588                 1.0485                 1.0375
 Frc consts  --      0.3161                 0.3631                 0.3739
 IR Inten    --      9.1070                 1.1679                13.0308

                     37                     38                     39
                      A                      A                      A
 Frequencies --   1799.4253              2530.7402              2632.0028
 Red. masses --      1.0180                 1.0384                 1.0382
 Frc consts  --      1.9421                 3.9185                 4.2375
 IR Inten    --     85.3245                47.2688                 8.1285

                     40                     41                     42
                      A                      A                      A
 Frequencies --   2637.4674              2654.6277              2664.5772
 Red. masses --      1.0384                 1.0381                 1.0386
 Frc consts  --      4.2559                 4.3100                 4.3447
 IR Inten    --      7.6445                 1.5858                 0.5748

 - Thermochemistry -
 -------------------
 Temperature   298.150 Kelvin.  Pressure   1.00000 Atm.
 Atom     1 has atomic number 42 and mass  97.90550

 Molecular mass:   523.56795 amu.
 Principal axes and moments of inertia in atomic units:
                           1         2         3
     Eigenvalues --  5306.098516550.953308703.59461
           X            0.66770   0.72729  -0.15879
           Y           -0.43625   0.55513   0.70818
           Z            0.60320  -0.40358   0.68795
 This molecule is an asymmetric top.
 Rotational symmetry number  1.
 Warning -- assumption of classical behavior for rotation
           may cause significant error
 Rotational temperatures (Kelvin)      0.01632     0.01322     0.00995
 Rotational constants (GHZ):           0.34013     0.27549     0.20736
 Zero-point vibrational energy     163396.4 (Joules/Mol)
                                   39.05268 (Kcal/Mol)
 Warning -- explicit consideration of  30 degrees of freedom as
           vibrations may cause significant error
 Vibrational temperatures:     68.55    75.94    91.61   103.10   129.01
          (Kelvin)            170.40   173.28   178.06   207.47   241.69
                              284.97   303.65   315.85   346.41   358.62
                              405.60   445.67   457.87   468.12   478.07
                              501.29   523.58   530.51   544.62   566.97
                              636.25   658.50   798.64   827.97   861.33
                              922.03   953.06   957.95  1024.17  1103.14
                             1125.30  2588.97  3641.17  3786.87  3794.73
                             3819.42  3833.73

 Zero-point correction=                           0.062234 (Hartree/Particle)
 Thermal correction to Energy=                    0.080507
 Thermal correction to Enthalpy=                  0.081451
 Thermal correction to Gibbs Free Energy=         0.014148
 Sum of electronic and zero-point Energies=          -2993.717065
 Sum of electronic and thermal Energies=             -2993.698793
 Sum of electronic and thermal Enthalpies=           -2993.697848
 Sum of electronic and thermal Free Energies=        -2993.765152

                     E (Thermal)             CV                S
                      KCal/Mol        Cal/Mol-Kelvin    Cal/Mol-Kelvin
 Total                   50.519             61.256            141.652
 Electronic               0.000              0.000              0.000
 Translational            0.889              2.981             44.653
 Rotational               0.889              2.981             34.069
 Vibrational             48.741             55.294             62.930
 Vibration     1          0.595              1.978              4.913
 Vibration     2          0.596              1.976              4.710
 Vibration     3          0.597              1.972              4.340
 Vibration     4          0.598              1.968              4.107
 Vibration     5          0.602              1.956              3.667
 Vibration     6          0.609              1.934              3.126
 Vibration     7          0.609              1.932              3.093
 Vibration     8          0.610              1.929              3.041
 Vibration     9          0.616              1.909              2.747
 Vibration    10          0.625              1.882              2.458
 Vibration    11          0.637              1.843              2.151
 Vibration    12          0.643              1.824              2.035
 Vibration    13          0.647              1.811              1.963
 Vibration    14          0.658              1.778              1.797
 Vibration    15          0.662              1.764              1.736
 Vibration    16          0.681              1.707              1.522
 Vibration    17          0.699              1.655              1.364
 Vibration    18          0.705              1.639              1.319
 Vibration    19          0.709              1.625              1.283
 Vibration    20          0.714              1.611              1.249
 Vibration    21          0.726              1.578              1.173
 Vibration    22          0.737              1.547              1.105
 Vibration    23          0.741              1.537              1.085
 Vibration    24          0.749              1.516              1.045
 Vibration    25          0.761              1.483              0.985
 Vibration    26          0.802              1.378              0.820
 Vibration    27          0.816              1.344              0.773
 Vibration    28          0.911              1.129              0.534
 Vibration    29          0.932              1.084              0.494
 Vibration    30          0.957              1.035              0.452

                           ! Non-Optimized Parameters !
 Normal termination of Gaussian 16 at Sat Jul  8 16:40:32 2023.
