 Gaussian 16, Revision C.01,
 Gaussian 16:  ES64L-G16RevC.01  3-Jul-2019

 -----------------------------------------------------------
 # opt=(calcfc,ts,noeigen) freq b3lyp/gen nosymm pseudo=read
 -----------------------------------------------------------

 -------------------
 Title Card Required
 -------------------
 Symbolic Z-matrix:
 Charge =  0 Multiplicity = 1

 SCF Done:  E(RB3LYP) =  -2993.69902865     A.U. after   22 cycles
 SCF Done:  E(RB3LYP) =  -2993.71049816     A.U. after   17 cycles
 SCF Done:  E(RB3LYP) =  -2993.71593599     A.U. after   17 cycles
 SCF Done:  E(RB3LYP) =  -2993.72666410     A.U. after   17 cycles
 SCF Done:  E(RB3LYP) =  -2993.71967409     A.U. after   17 cycles
 SCF Done:  E(RB3LYP) =  -2993.72052921     A.U. after   17 cycles
 SCF Done:  E(RB3LYP) =  -2993.72173154     A.U. after   17 cycles
 SCF Done:  E(RB3LYP) =  -2993.72423399     A.U. after   17 cycles
 SCF Done:  E(RB3LYP) =  -2993.72606695     A.U. after   18 cycles
 SCF Done:  E(RB3LYP) =  -2993.72654599     A.U. after   17 cycles
 SCF Done:  E(RB3LYP) =  -2993.76295085     A.U. after   14 cycles
 SCF Done:  E(RB3LYP) =  -2993.76295325     A.U. after   14 cycles
 SCF Done:  E(RB3LYP) =  -2993.76295440     A.U. after   13 cycles
 SCF Done:  E(RB3LYP) =  -2993.76295531     A.U. after   13 cycles
 SCF Done:  E(RB3LYP) =  -2993.76295590     A.U. after   12 cycles
 SCF Done:  E(RB3LYP) =  -2993.76295631     A.U. after   13 cycles
 SCF Done:  E(RB3LYP) =  -2993.76295644     A.U. after   13 cycles
 SCF Done:  E(RB3LYP) =  -2993.76295783     A.U. after   14 cycles
 SCF Done:  E(RB3LYP) =  -2993.76295648     A.U. after   14 cycles
 Optimization completed.
    -- Stationary point found.
 Normal termination of Gaussian 16 at Sun Jul  9 01:14:48 2023.

 ------------------------------------------------------------------
 #N Geom=AllCheck Guess=TCheck SCRF=Check GenChk RB3LYP/ChkBas Freq
 ------------------------------------------------------------------

 Structure from the checkpoint file:  "/localscratch/chegho/Gau-63592.chk"
 -------------------
 Title Card Required
 -------------------
 Charge =  0 Multiplicity = 1

                          Input orientation:
 ---------------------------------------------------------------------
 Center     Atomic      Atomic             Coordinates (Angstroms)
 Number     Number       Type             X           Y           Z
 ---------------------------------------------------------------------
      1         42           0        0.160294    1.959226   11.268476
      2         16           0        0.708608    4.301604   11.218214
      3         16           0       -1.732697    1.974041   12.541717
      4         16           0       -0.507347    1.314321    9.012513
      5         16           0        1.727662    0.244675   11.333295
      6          1           0        1.687556   -0.428200   10.163876
      7         42           0       -2.341956    2.070572   10.282024
      8         16           0       -4.257299    0.997863    9.444200
      9          1           0       -4.867963    1.987756    8.753635
     10         16           0       -2.976556    4.336120    9.755295
     11          1           0       -3.658553    4.286926    8.575373
     12          1           0        1.262691    4.098272    9.828934
     13         42           0       -0.597685    3.656674    9.181976
     14         16           0       -0.679272    4.584768    7.026566
     15          1           0       -2.003595    4.830755    6.888302
     16          1           0        1.070860    3.533003    8.649345
 ---------------------------------------------------------------------

 SCF Done:  E(RB3LYP) =  -2993.76295648     A.U. after    1 cycles

 Alpha  occ. eigenvalues --  -88.91044 -88.90209 -88.89993 -88.89364 -88.88432
 Alpha  occ. eigenvalues --  -88.87464 -88.87449  -7.98720  -7.97811  -7.97777
 Alpha  occ. eigenvalues --   -7.97248  -7.96297  -7.95239  -7.95175  -5.94692
 Alpha  occ. eigenvalues --   -5.94664  -5.94659  -5.94091  -5.93934  -5.93701
 Alpha  occ. eigenvalues --   -5.93654  -5.93568  -5.93527  -5.93250  -5.93173
 Alpha  occ. eigenvalues --   -5.93139  -5.92553  -5.92156  -5.92018  -5.91514
 Alpha  occ. eigenvalues --   -5.91449  -5.91068  -5.91004  -5.90986  -5.90930
 Alpha  occ. eigenvalues --   -2.54780  -2.54089  -2.53477  -1.58628  -1.57922
 Alpha  occ. eigenvalues --   -1.57305  -1.56734  -1.56130  -1.55722  -1.55468
 Alpha  occ. eigenvalues --   -1.55226  -1.54481  -0.75984  -0.75180  -0.74426
 Alpha  occ. eigenvalues --   -0.73489  -0.72833  -0.72385  -0.71956  -0.48577
 Alpha  occ. eigenvalues --   -0.46157  -0.44825  -0.42810  -0.42552  -0.40222
 Alpha  occ. eigenvalues --   -0.39814  -0.39060  -0.38268  -0.37823  -0.36855
 Alpha  occ. eigenvalues --   -0.35727  -0.34813  -0.33811  -0.33384  -0.33015
 Alpha  occ. eigenvalues --   -0.31615  -0.31415  -0.30191  -0.29450  -0.29038
 Alpha  occ. eigenvalues --   -0.27909  -0.27053  -0.26603  -0.25887  -0.23091
 Alpha virt. eigenvalues --   -0.14833  -0.14478  -0.13902  -0.13119  -0.11770
 Alpha virt. eigenvalues --   -0.09786  -0.09723  -0.08844  -0.08085  -0.06718
 Alpha virt. eigenvalues --   -0.04163  -0.02442  -0.00462   0.00284   0.00708

 Mulliken charges:
               1
     1  Mo   0.069063
     2  S    0.021663
     3  S   -0.096634
     4  S    0.139849
     5  S   -0.142918
     6  H    0.099473
     7  Mo   0.016572
     8  S   -0.143206
     9  H    0.078818
    10  S    0.017935
    11  H    0.064395
    12  H    0.146644
    13  Mo  -0.225135
    14  S   -0.099957
    15  H    0.058670
    16  H   -0.005232
 Sum of Mulliken charges =  -0.00000

 Dipole moment (field-independent basis, Debye):
    X=             -0.3740    Y=              0.1492    Z=             -0.1980  Tot=              0.4487
 Quadrupole moment (field-independent basis, Debye-Ang):
   XX=           -162.5161   YY=           -166.0903   ZZ=           -172.4886
   XY=             -8.0836   XZ=              2.9955   YZ=              1.6422

  Exact polarizability:     305.460      -4.577     252.059      32.960     -45.706     258.261
 Approx polarizability:     842.875      45.701     658.783      64.533    -141.256     696.900

 ******    1 imaginary frequencies (negative Signs) ******

                      1                      2                      3
                      A                      A                      A
 Frequencies --   -984.3227                48.3692                54.0923
 Red. masses --      1.0297                15.9505                13.6721
 Frc consts  --      0.5878                 0.0220                 0.0236
 IR Inten    --    314.1168                 0.2338                 0.0538

                      4                      5                      6
                      A                      A                      A
 Frequencies --     63.9289                72.1033                98.1303
 Red. masses --     18.5364                15.0683                14.1601
 Frc consts  --      0.0446                 0.0462                 0.0803
 IR Inten    --      0.2511                 0.2044                 0.2485

                      7                      8                      9
                      A                      A                      A
 Frequencies --    117.3737               125.5999               136.3013
 Red. masses --     14.7100                21.5707                25.7481
 Frc consts  --      0.1194                 0.2005                 0.2818
 IR Inten    --      0.9653                 0.5303                 2.2210

                     10                     11                     12
                      A                      A                      A
 Frequencies --    144.5206               180.0594               199.2803
 Red. masses --     14.8156                15.7007                 8.2523
 Frc consts  --      0.1823                 0.2999                 0.1931
 IR Inten    --      0.1443                 1.4094                 2.6610

                     13                     14                     15
                      A                      A                      A
 Frequencies --    213.4231               225.9197               240.3868
 Red. masses --      4.3173                 4.9803                16.1624
 Frc consts  --      0.1159                 0.1498                 0.5503
 IR Inten    --      9.4744                 2.4329                 1.2206

                     16                     17                     18
                      A                      A                      A
 Frequencies --    254.5839               285.7497               307.1760
 Red. masses --      2.9768                 4.9607                 2.1536
 Frc consts  --      0.1137                 0.2387                 0.1197
 IR Inten    --      5.5049                 5.6265                 7.9454

                     19                     20                     21
                      A                      A                      A
 Frequencies --    313.1000               332.7329               350.1645
 Red. masses --      2.1398                25.0134                23.8587
 Frc consts  --      0.1236                 1.6316                 1.7236
 IR Inten    --      3.9041                 9.0170                12.9341

                     22                     23                     24
                      A                      A                      A
 Frequencies --    352.3792               365.9860               371.4370
 Red. masses --     11.1593                13.9643                19.9293
 Frc consts  --      0.8164                 1.1020                 1.6200
 IR Inten    --     43.9104                29.3320                40.7958

                     25                     26                     27
                      A                      A                      A
 Frequencies --    390.2656               408.7100               443.5038
 Red. masses --      2.0863                 2.2979                20.4250
 Frc consts  --      0.1872                 0.2262                 2.3670
 IR Inten    --     41.9975                 6.8280                 9.2188

                     28                     29                     30
                      A                      A                      A
 Frequencies --    462.4712               568.6198               618.4639
 Red. masses --     23.3363                 1.0627                 1.0852
 Frc consts  --      2.9407                 0.2024                 0.2446
 IR Inten    --     16.4201                20.1035                 5.7104

                     31                     32                     33
                      A                      A                      A
 Frequencies --    639.2181               650.8915               672.5164
 Red. masses --      1.0669                 1.0519                 1.0518
 Frc consts  --      0.2568                 0.2626                 0.2803
 IR Inten    --     15.8642                 6.3795                25.3400

                     34                     35                     36
                      A                      A                      A
 Frequencies --    728.6878               778.1272               900.5450
 Red. masses --      1.0573                 1.0299                 1.0256
 Frc consts  --      0.3308                 0.3674                 0.4901
 IR Inten    --      8.2773                 1.3655                 5.9140

                     37                     38                     39
                      A                      A                      A
 Frequencies --   1471.8815              1720.1302              2519.9358
 Red. masses --      1.0330                 1.0175                 1.0386
 Frc consts  --      1.3185                 1.7738                 3.8857
 IR Inten    --     13.2841                98.0723                48.7840

                     40                     41                     42
                      A                      A                      A
 Frequencies --   2631.2109              2640.6461              2666.3124
 Red. masses --      1.0385                 1.0384                 1.0387
 Frc consts  --      4.2359                 4.2663                 4.3506
 IR Inten    --      7.7458                 5.2621                 0.5898

 - Thermochemistry -
 -------------------
 Temperature   298.150 Kelvin.  Pressure   1.00000 Atm.
 Atom     1 has atomic number 42 and mass  97.90550

 Molecular mass:   523.56795 amu.
 Principal axes and moments of inertia in atomic units:
                           1         2         3
     Eigenvalues --  5293.191856533.893348853.76590
           X            0.65569   0.72613  -0.20691
           Y           -0.44054   0.59049   0.67620
           Z            0.61319  -0.35223   0.70706
 This molecule is an asymmetric top.
 Rotational symmetry number  1.
 Warning -- assumption of classical behavior for rotation
           may cause significant error
 Rotational temperatures (Kelvin)      0.01636     0.01326     0.00978
 Rotational constants (GHZ):           0.34096     0.27621     0.20384
    1 imaginary frequencies ignored.
 Zero-point vibrational energy     154108.5 (Joules/Mol)
                                   36.83282 (Kcal/Mol)
 Warning -- explicit consideration of  29 degrees of freedom as
           vibrations may cause significant error
 Vibrational temperatures:     69.59    77.83    91.98   103.74   141.19
          (Kelvin)            168.87   180.71   196.11   207.93   259.07
                              286.72   307.07   325.05   345.86   366.29
                              411.13   441.96   450.48   478.73   503.81
                              507.00   526.57   534.41   561.51   588.04
                              638.10   665.39   818.12   889.83   919.69
                              936.49   967.60  1048.42  1119.55  1295.68
                             2117.71  2474.88  3625.63  3785.73  3799.30
                             3836.23

 Zero-point correction=                           0.058697 (Hartree/Particle)
 Thermal correction to Energy=                    0.076586
 Thermal correction to Enthalpy=                  0.077530
 Thermal correction to Gibbs Free Energy=         0.011017
 Sum of electronic and zero-point Energies=          -2993.704260
 Sum of electronic and thermal Energies=             -2993.686371
 Sum of electronic and thermal Enthalpies=           -2993.685427
 Sum of electronic and thermal Free Energies=        -2993.751940

                     E (Thermal)             CV                S
                      KCal/Mol        Cal/Mol-Kelvin    Cal/Mol-Kelvin
 Total                   48.058             59.778            139.988
 Electronic               0.000              0.000              0.000
 Translational            0.889              2.981             44.653
 Rotational               0.889              2.981             34.081
 Vibrational             46.281             53.817             61.254
 Vibration     1          0.595              1.978              4.883
 Vibration     2          0.596              1.976              4.662
 Vibration     3          0.597              1.972              4.332
 Vibration     4          0.598              1.967              4.095
 Vibration     5          0.604              1.950              3.491
 Vibration     6          0.608              1.935              3.143
 Vibration     7          0.611              1.927              3.012
 Vibration     8          0.614              1.917              2.855
 Vibration     9          0.616              1.909              2.743
 Vibration    10          0.629              1.867              2.328
 Vibration    11          0.637              1.841              2.140
 Vibration    12          0.644              1.820              2.014
 Vibration    13          0.650              1.802              1.911
 Vibration    14          0.657              1.779              1.800
 Vibration    15          0.665              1.755              1.699
 Vibration    16          0.684              1.700              1.499
 Vibration    17          0.697              1.660              1.377
 Vibration    18          0.701              1.649              1.346
 Vibration    19          0.715              1.610              1.247
 Vibration    20          0.727              1.575              1.165
 Vibration    21          0.729              1.570              1.156
 Vibration    22          0.739              1.542              1.097
 Vibration    23          0.743              1.531              1.074
 Vibration    24          0.758              1.491              0.999
 Vibration    25          0.773              1.451              0.931
 Vibration    26          0.803              1.375              0.816
 Vibration    27          0.820              1.333              0.759
 Vibration    28          0.925              1.099              0.507
 Vibration    29          0.978              0.993              0.419

                           ! Non-Optimized Parameters !
 Normal termination of Gaussian 16 at Sun Jul  9 01:15:50 2023.
