 Gaussian 16, Revision C.01,
 Gaussian 16:  ES64L-G16RevC.01  3-Jul-2019

 ---------------------------------------
 # opt freq b3lyp/gen nosymm pseudo=read
 ---------------------------------------

 -------------------
 Title Card Required
 -------------------
 Symbolic Z-matrix:
 Charge =  0 Multiplicity = 1

 SCF Done:  E(RB3LYP) =  -2992.59663785     A.U. after   23 cycles
 SCF Done:  E(RB3LYP) =  -2992.61137772     A.U. after   19 cycles
 SCF Done:  E(RB3LYP) =  -2992.62019879     A.U. after   19 cycles
 SCF Done:  E(RB3LYP) =  -2992.62235483     A.U. after   18 cycles
 SCF Done:  E(RB3LYP) =  -2992.62381069     A.U. after   19 cycles
 SCF Done:  E(RB3LYP) =  -2992.62444430     A.U. after   17 cycles
 SCF Done:  E(RB3LYP) =  -2992.62482640     A.U. after   17 cycles
 SCF Done:  E(RB3LYP) =  -2992.62492632     A.U. after   16 cycles
 SCF Done:  E(RB3LYP) =  -2992.62504140     A.U. after   16 cycles
 SCF Done:  E(RB3LYP) =  -2992.62507221     A.U. after   16 cycles
 SCF Done:  E(RB3LYP) =  -2992.62928755     A.U. after   16 cycles
 SCF Done:  E(RB3LYP) =  -2992.62942672     A.U. after   15 cycles
 SCF Done:  E(RB3LYP) =  -2992.62948430     A.U. after   15 cycles
 SCF Done:  E(RB3LYP) =  -2992.62950619     A.U. after   15 cycles
 SCF Done:  E(RB3LYP) =  -2992.62952168     A.U. after   14 cycles
 SCF Done:  E(RB3LYP) =  -2992.62952335     A.U. after   12 cycles
 SCF Done:  E(RB3LYP) =  -2992.62952409     A.U. after   12 cycles
 SCF Done:  E(RB3LYP) =  -2992.62952456     A.U. after   12 cycles
 SCF Done:  E(RB3LYP) =  -2992.62952493     A.U. after   12 cycles
 Optimization completed.
    -- Stationary point found.
 Normal termination of Gaussian 16 at Tue Nov  1 10:11:37 2022.

 ------------------------------------------------------------------
 #N Geom=AllCheck Guess=TCheck SCRF=Check GenChk RB3LYP/ChkBas Freq
 ------------------------------------------------------------------

 Structure from the checkpoint file:  "/home/chesagar/scratch/Gau-87598.chk"
 -------------------
 Title Card Required
 -------------------
 Charge =  0 Multiplicity = 1

                          Input orientation:
 ---------------------------------------------------------------------
 Center     Atomic      Atomic             Coordinates (Angstroms)
 Number     Number       Type             X           Y           Z
 ---------------------------------------------------------------------
      1         42           0        0.091426    2.024600   11.118116
      2         16           0        0.482504    4.282356   10.783095
      3         16           0       -1.701046    2.065092   12.590522
      4         16           0       -0.815101    1.180340    9.012281
      5         16           0        1.757266    0.385964   11.104562
      6          1           0        1.603144   -0.388619   10.011490
      7         42           0       -2.534152    1.951745   10.441458
      8         16           0       -4.565972    0.829130   10.054897
      9          1           0       -5.241725    1.627128    9.198484
     10         16           0       -3.339984    4.101422    9.569228
     11          1           0       -4.019013    3.832075    8.417330
     12         42           0       -0.983172    3.536386    9.158353
     13         16           0       -1.067085    4.496439    7.006429
     14          1           0        0.248323    4.401384    6.700878
 ---------------------------------------------------------------------

 SCF Done:  E(RB3LYP) =  -2992.62952493     A.U. after    1 cycles

 Alpha  occ. eigenvalues --  -88.91315 -88.91064 -88.88809 -88.88805 -88.87760
 Alpha  occ. eigenvalues --  -88.87607 -88.87552  -7.98928  -7.98781  -7.96656
 Alpha  occ. eigenvalues --   -7.96651  -7.95629  -7.95396  -7.95327  -5.95193
 Alpha  occ. eigenvalues --   -5.94757  -5.94751  -5.94731  -5.94713  -5.94702
 Alpha  occ. eigenvalues --   -5.92629  -5.92627  -5.92605  -5.92602  -5.92561
 Alpha  occ. eigenvalues --   -5.92552  -5.91895  -5.91667  -5.91605  -5.91493
 Alpha  occ. eigenvalues --   -5.91337  -5.91210  -5.91160  -5.91155  -5.91073
 Alpha  occ. eigenvalues --   -2.54778  -2.54187  -2.54170  -1.59122  -1.57860
 Alpha  occ. eigenvalues --   -1.57505  -1.56850  -1.56409  -1.56191  -1.55817
 Alpha  occ. eigenvalues --   -1.55135  -1.55112  -0.76464  -0.74635  -0.73167
 Alpha  occ. eigenvalues --   -0.72983  -0.72844  -0.71673  -0.71156  -0.46624
 Alpha  occ. eigenvalues --   -0.44754  -0.43304  -0.42875  -0.40334  -0.40082
 Alpha  occ. eigenvalues --   -0.39022  -0.38106  -0.37939  -0.37381  -0.35492
 Alpha  occ. eigenvalues --   -0.35200  -0.34081  -0.33652  -0.33308  -0.32359
 Alpha  occ. eigenvalues --   -0.31546  -0.30837  -0.29848  -0.28850  -0.27979
 Alpha  occ. eigenvalues --   -0.27513  -0.26413  -0.25470  -0.23600
 Alpha virt. eigenvalues --   -0.14665  -0.14428  -0.12987  -0.12916  -0.12102
 Alpha virt. eigenvalues --   -0.10857  -0.09612  -0.08985  -0.08311  -0.07406
 Alpha virt. eigenvalues --   -0.06225  -0.02313  -0.01053  -0.00251   0.01036

 Mulliken charges:
               1
     1  Mo   0.018405
     2  S   -0.093812
     3  S   -0.090145
     4  S    0.089571
     5  S   -0.157423
     6  H    0.096449
     7  Mo   0.070477
     8  S   -0.138283
     9  H    0.078010
    10  S    0.034497
    11  H    0.085151
    12  Mo   0.058975
    13  S   -0.141713
    14  H    0.089841
 Sum of Mulliken charges =  -0.00000

 Dipole moment (field-independent basis, Debye):
    X=              0.2313    Y=             -0.1289    Z=             -1.5381  Tot=              1.5608
 Quadrupole moment (field-independent basis, Debye-Ang):
   XX=           -160.7796   YY=           -167.9935   ZZ=           -195.6595
   XY=             -2.7904   XZ=              4.5927   YZ=             -2.9126

  Exact polarizability:     309.260       0.570     243.644      19.232     -48.565     248.569
 Approx polarizability:     818.808      57.570     648.364      29.841    -152.779     670.986

                      1                      2                      3
                      A                      A                      A
 Frequencies --     42.8406                49.2818                63.8764
 Red. masses --     12.6372                12.9646                17.6948
 Frc consts  --      0.0137                 0.0186                 0.0425
 IR Inten    --      0.1418                 0.0217                 0.0419

                      4                      5                      6
                      A                      A                      A
 Frequencies --     66.4837                93.4725               106.6740
 Red. masses --     13.8097                13.0106                12.8328
 Frc consts  --      0.0360                 0.0670                 0.0860
 IR Inten    --      0.1451                 0.4913                 0.2034

                      7                      8                      9
                      A                      A                      A
 Frequencies --    132.5457               134.7966               147.7552
 Red. masses --     23.6417                16.3236                22.2522
 Frc consts  --      0.2447                 0.1748                 0.2862
 IR Inten    --      0.3321                 0.7198                 0.3851

                     10                     11                     12
                      A                      A                      A
 Frequencies --    193.8837               202.4099               226.8393
 Red. masses --     20.7383                22.4242                23.8493
 Frc consts  --      0.4593                 0.5413                 0.7230
 IR Inten    --      1.1579                 0.1111                 0.2092

                     13                     14                     15
                      A                      A                      A
 Frequencies --    245.1664               262.0979               272.3423
 Red. masses --     10.0062                 1.6933                 3.2935
 Frc consts  --      0.3544                 0.0685                 0.1439
 IR Inten    --      4.1565                19.4911                 2.2282

                     16                     17                     18
                      A                      A                      A
 Frequencies --    285.8577               296.5237               312.5893
 Red. masses --      1.8417                 2.6016                22.9222
 Frc consts  --      0.0887                 0.1348                 1.3196
 IR Inten    --      7.8763                 1.5073                 3.5279

                     19                     20                     21
                      A                      A                      A
 Frequencies --    319.0930               325.5424               357.8146
 Red. masses --      1.2169                 7.9679                30.7767
 Frc consts  --      0.0730                 0.4975                 2.3216
 IR Inten    --      5.7797                12.3975                81.8030

                     22                     23                     24
                      A                      A                      A
 Frequencies --    360.9489               366.3635               367.6056
 Red. masses --     20.5705                16.9139                24.8029
 Frc consts  --      1.5790                 1.3376                 1.9748
 IR Inten    --     22.1130                37.6798                19.6870

                     25                     26                     27
                      A                      A                      A
 Frequencies --    440.9590               445.6117               463.1559
 Red. masses --     25.3480                24.9206                23.5475
 Frc consts  --      2.9040                 2.9156                 2.9761
 IR Inten    --     19.1643                 6.2515                19.3103

                     28                     29                     30
                      A                      A                      A
 Frequencies --    556.4346               573.5632               628.5039
 Red. masses --      1.0692                 1.0876                 1.0737
 Frc consts  --      0.1950                 0.2108                 0.2499
 IR Inten    --      6.7804                27.4174                16.4878

                     31                     32                     33
                      A                      A                      A
 Frequencies --    640.4074               724.4692              2524.7161
 Red. masses --      1.0970                 1.0597                 1.0384
 Frc consts  --      0.2651                 0.3277                 3.8999
 IR Inten    --     12.2152                 0.0854                30.0100

                     34                     35                     36
                      A                      A                      A
 Frequencies --   2644.3717              2650.3687              2678.1319
 Red. masses --      1.0381                 1.0385                 1.0387
 Frc consts  --      4.2771                 4.2979                 4.3894
 IR Inten    --      2.7680                 3.2736                 0.0832

 - Thermochemistry -
 -------------------
 Temperature   298.150 Kelvin.  Pressure   1.00000 Atm.
 Atom     1 has atomic number 42 and mass  97.90550

 Molecular mass:   521.55230 amu.
 Principal axes and moments of inertia in atomic units:
                           1         2         3
     Eigenvalues --  5279.355726246.752328882.60019
           X            0.79859   0.58756  -0.13045
           Y           -0.34385   0.62327   0.70235
           Z            0.49398  -0.51604   0.69977
 This molecule is an asymmetric top.
 Rotational symmetry number  1.
 Warning -- assumption of classical behavior for rotation
           may cause significant error
 Rotational temperatures (Kelvin)      0.01641     0.01387     0.00975
 Rotational constants (GHZ):           0.34185     0.28891     0.20318
 Zero-point vibrational energy     120843.8 (Joules/Mol)
                                   28.88235 (Kcal/Mol)
 Warning -- explicit consideration of  29 degrees of freedom as
           vibrations may cause significant error
 Vibrational temperatures:     61.64    70.91    91.90    95.66   134.49
          (Kelvin)            153.48   190.70   193.94   212.59   278.96
                              291.22   326.37   352.74   377.10   391.84
                              411.29   426.63   449.75   459.10   468.38
                              514.82   519.32   527.12   528.90   634.44
                              641.14   666.38   800.59   825.23   904.28
                              921.40  1042.35  3632.50  3804.66  3813.29
                             3853.23

 Zero-point correction=                           0.046027 (Hartree/Particle)
 Thermal correction to Energy=                    0.063661
 Thermal correction to Enthalpy=                  0.064605
 Thermal correction to Gibbs Free Energy=        -0.001741
 Sum of electronic and zero-point Energies=          -2992.583498
 Sum of electronic and thermal Energies=             -2992.565864
 Sum of electronic and thermal Enthalpies=           -2992.564920
 Sum of electronic and thermal Free Energies=        -2992.631266

                     E (Thermal)             CV                S
                      KCal/Mol        Cal/Mol-Kelvin    Cal/Mol-Kelvin
 Total                   39.948             57.713            139.636
 Electronic               0.000              0.000              0.000
 Translational            0.889              2.981             44.641
 Rotational               0.889              2.981             34.037
 Vibrational             38.170             51.752             60.958
 Vibration     1          0.595              1.980              5.123
 Vibration     2          0.595              1.978              4.846
 Vibration     3          0.597              1.972              4.334
 Vibration     4          0.598              1.970              4.255
 Vibration     5          0.602              1.954              3.586
 Vibration     6          0.606              1.944              3.329
 Vibration     7          0.613              1.921              2.909
 Vibration     8          0.613              1.919              2.876
 Vibration     9          0.617              1.905              2.701
 Vibration    10          0.635              1.848              2.190
 Vibration    11          0.639              1.836              2.111
 Vibration    12          0.650              1.800              1.904
 Vibration    13          0.660              1.771              1.765
 Vibration    14          0.669              1.742              1.648
 Vibration    15          0.675              1.724              1.581
 Vibration    16          0.684              1.700              1.498
 Vibration    17          0.690              1.680              1.436
 Vibration    18          0.701              1.650              1.349
 Vibration    19          0.705              1.637              1.315
 Vibration    20          0.710              1.624              1.282
 Vibration    21          0.733              1.559              1.132
 Vibration    22          0.735              1.553              1.118
 Vibration    23          0.739              1.541              1.095
 Vibration    24          0.740              1.539              1.090
 Vibration    25          0.801              1.381              0.824
 Vibration    26          0.805              1.371              0.809
 Vibration    27          0.821              1.332              0.757
 Vibration    28          0.912              1.126              0.531
 Vibration    29          0.930              1.088              0.497

                           ! Non-Optimized Parameters !
 Normal termination of Gaussian 16 at Tue Nov  1 10:12:10 2022.
