 Gaussian 16, Revision C.01,
 Gaussian 16:  ES64L-G16RevC.01  3-Jul-2019

 ---------------------------------------
 # opt freq b3lyp/gen nosymm pseudo=read
 ---------------------------------------

 -------------------
 Title Card Required
 -------------------
 Symbolic Z-matrix:
 Charge =  0 Multiplicity = 1

 SCF Done:  E(RB3LYP) =  -3391.98340597     A.U. after   21 cycles
 SCF Done:  E(RB3LYP) =  -3392.01250735     A.U. after   17 cycles
 SCF Done:  E(RB3LYP) =  -3392.02371375     A.U. after   18 cycles
 SCF Done:  E(RB3LYP) =  -3392.02539235     A.U. after   16 cycles
 SCF Done:  E(RB3LYP) =  -3392.02712268     A.U. after   17 cycles
 SCF Done:  E(RB3LYP) =  -3392.02790411     A.U. after   17 cycles
 SCF Done:  E(RB3LYP) =  -3392.02829359     A.U. after   16 cycles
 SCF Done:  E(RB3LYP) =  -3392.02856472     A.U. after   16 cycles
 SCF Done:  E(RB3LYP) =  -3392.02863751     A.U. after   15 cycles
 SCF Done:  E(RB3LYP) =  -3392.02880218     A.U. after   16 cycles
 SCF Done:  E(RB3LYP) =  -3392.02951539     A.U. after   14 cycles
 SCF Done:  E(RB3LYP) =  -3392.02951731     A.U. after   12 cycles
 SCF Done:  E(RB3LYP) =  -3392.02951793     A.U. after   13 cycles
 SCF Done:  E(RB3LYP) =  -3392.02951867     A.U. after   13 cycles
 SCF Done:  E(RB3LYP) =  -3392.02951913     A.U. after   12 cycles
 SCF Done:  E(RB3LYP) =  -3392.02951943     A.U. after   12 cycles
 SCF Done:  E(RB3LYP) =  -3392.02951984     A.U. after   13 cycles
 SCF Done:  E(RB3LYP) =  -3392.02952021     A.U. after   12 cycles
 SCF Done:  E(RB3LYP) =  -3392.02952032     A.U. after   11 cycles
 Optimization completed.
    -- Stationary point found.
 Normal termination of Gaussian 16 at Wed Oct 26 14:41:17 2022.

 ------------------------------------------------------------------
 #N Geom=AllCheck Guess=TCheck SCRF=Check GenChk RB3LYP/ChkBas Freq
 ------------------------------------------------------------------

 Structure from the checkpoint file:  "Mo3_SH_H2S.chk"
 -------------------
 Title Card Required
 -------------------
 Charge =  0 Multiplicity = 1

                          Input orientation:
 ---------------------------------------------------------------------
 Center     Atomic      Atomic             Coordinates (Angstroms)
 Number     Number       Type             X           Y           Z
 ---------------------------------------------------------------------
      1         42           0       -0.352609    1.400295   11.454931
      2         16           0        0.111470    3.624184   11.712856
      3         16           0       -2.380064    1.309838   12.581819
      4         16           0       -0.940672    1.003093    9.102594
      5         16           0        1.344569   -0.236250   11.361179
      6          1           0        1.258424   -0.849930   10.163251
      7         42           0       -2.804969    1.701926   10.344659
      8         16           0       -4.796846    0.892245    9.392393
      9          1           0       -5.306081    2.008653    8.823187
     10         16           0       -3.222420    4.065599   10.166955
     11          1           0       -3.817738    4.279738    8.959251
     12         42           0       -0.909051    3.340241    9.588174
     13         16           0       -1.173803    4.813341    7.725498
     14          1           0        0.056840    4.959325    7.185332
     15         16           0        1.658517    3.263639    8.735243
     16          1           0        1.607161    2.437388    7.669274
     17          1           0        2.194694    2.325143    9.544628
 ---------------------------------------------------------------------

 SCF Done:  E(RB3LYP) =  -3392.02952032     A.U. after    1 cycles

 Alpha  occ. eigenvalues --  -88.94004 -88.90283 -88.89853 -88.87993 -88.87572
 Alpha  occ. eigenvalues --  -88.87156 -88.86831 -88.86766  -8.01655  -7.97869
 Alpha  occ. eigenvalues --   -7.97557  -7.95855  -7.95343  -7.94985  -7.94547
 Alpha  occ. eigenvalues --   -7.94536  -5.97967  -5.97682  -5.97188  -5.94128
 Alpha  occ. eigenvalues --   -5.93684  -5.93677  -5.93542  -5.93501  -5.93483
 Alpha  occ. eigenvalues --   -5.91835  -5.91794  -5.91759  -5.91349  -5.91307
 Alpha  occ. eigenvalues --   -5.91266  -5.91220  -5.90844  -5.90844  -5.90822
 Alpha  occ. eigenvalues --   -5.90693  -5.90358  -5.90337  -5.90313  -5.90296
 Alpha  occ. eigenvalues --   -2.53663  -2.53292  -2.53012  -1.57813  -1.56700
 Alpha  occ. eigenvalues --   -1.56415  -1.55784  -1.55429  -1.54975  -1.54775
 Alpha  occ. eigenvalues --   -1.54297  -1.54078  -0.81197  -0.75462  -0.73620
 Alpha  occ. eigenvalues --   -0.72475  -0.72175  -0.71979  -0.70793  -0.70024
 Alpha  occ. eigenvalues --   -0.50779  -0.46087  -0.44137  -0.43746  -0.42665
 Alpha  occ. eigenvalues --   -0.41918  -0.39590  -0.38863  -0.38662  -0.37339
 Alpha  occ. eigenvalues --   -0.37013  -0.36471  -0.34848  -0.34229  -0.33348
 Alpha  occ. eigenvalues --   -0.32721  -0.32335  -0.31746  -0.31379  -0.30644
 Alpha  occ. eigenvalues --   -0.29845  -0.29043  -0.27867  -0.27106  -0.26617
 Alpha  occ. eigenvalues --   -0.25779  -0.24521  -0.21839
 Alpha virt. eigenvalues --   -0.13840  -0.13647  -0.12358  -0.12132  -0.11266
 Alpha virt. eigenvalues --   -0.08570  -0.08479  -0.07770  -0.07114  -0.06094
 Alpha virt. eigenvalues --   -0.05837  -0.03018  -0.02320  -0.01341   0.00124

 Mulliken charges:
               1
     1  Mo   0.035092
     2  S   -0.052659
     3  S   -0.093680
     4  S    0.065827
     5  S   -0.181884
     6  H    0.089276
     7  Mo   0.055602
     8  S   -0.153755
     9  H    0.080613
    10  S    0.061027
    11  H    0.083676
    12  Mo  -0.233685
    13  S   -0.130807
    14  H    0.059322
    15  S    0.045949
    16  H    0.126612
    17  H    0.143475
 Sum of Mulliken charges =  -0.00000

 Dipole moment (field-independent basis, Debye):
    X=              3.0070    Y=             -0.0633    Z=             -2.8341  Tot=              4.1326
 Quadrupole moment (field-independent basis, Debye-Ang):
   XX=           -178.1971   YY=           -185.0629   ZZ=           -234.9424
   XY=              2.3674   XZ=             26.9651   YZ=             -5.8888

  Exact polarizability:     337.793      -1.105     271.809      17.334     -47.471     254.521
 Approx polarizability:     882.824      58.506     733.225      61.240    -129.436     661.321

                      1                      2                      3
                      A                      A                      A
 Frequencies --     33.7033                46.0610                52.8701
 Red. masses --     11.9337                17.7482                16.3669
 Frc consts  --      0.0080                 0.0222                 0.0270
 IR Inten    --      0.3770                 0.0301                 1.0001

                      4                      5                      6
                      A                      A                      A
 Frequencies --     70.4279                94.4191               108.1864
 Red. masses --     15.0957                13.5114                13.4245
 Frc consts  --      0.0441                 0.0710                 0.0926
 IR Inten    --      0.3726                 0.5492                 1.5271

                      7                      8                      9
                      A                      A                      A
 Frequencies --    111.8312               129.7099               136.0161
 Red. masses --     11.6457                18.0336                11.1380
 Frc consts  --      0.0858                 0.1788                 0.1214
 IR Inten    --      0.2896                 0.4087                 1.5070

                     10                     11                     12
                      A                      A                      A
 Frequencies --    152.5895               157.3046               161.8776
 Red. masses --     13.6952                 4.9791                 2.1073
 Frc consts  --      0.1879                 0.0726                 0.0325
 IR Inten    --      1.4555                 2.4800                 6.2093

                     13                     14                     15
                      A                      A                      A
 Frequencies --    174.6287               191.0504               201.2066
 Red. masses --      3.1570                11.8884                 6.4454
 Frc consts  --      0.0567                 0.2557                 0.1537
 IR Inten    --      2.8838                 1.7640                 3.7839

                     16                     17                     18
                      A                      A                      A
 Frequencies --    208.5804               242.6978               263.8277
 Red. masses --     14.8452                 1.8022                10.5150
 Frc consts  --      0.3805                 0.0625                 0.4312
 IR Inten    --      2.7430                 7.8825                 0.8002

                     19                     20                     21
                      A                      A                      A
 Frequencies --    266.5197               288.5563               300.6397
 Red. masses --     12.2950                 4.3411                 1.2727
 Frc consts  --      0.5146                 0.2130                 0.0678
 IR Inten    --      4.9902                11.7281                 3.7316

                     22                     23                     24
                      A                      A                      A
 Frequencies --    311.3823               326.5429               340.9945
 Red. masses --     11.9424                 4.7168                 1.4563
 Frc consts  --      0.6822                 0.2963                 0.0998
 IR Inten    --      4.9713                 7.6714                31.7133

                     25                     26                     27
                      A                      A                      A
 Frequencies --    349.7535               358.1985               361.0072
 Red. masses --     11.3868                17.5180                18.4591
 Frc consts  --      0.8207                 1.3243                 1.4174
 IR Inten    --     41.5554                25.0791                37.7257

                     28                     29                     30
                      A                      A                      A
 Frequencies --    373.4703               431.1589               438.2629
 Red. masses --     13.8417                23.0494                21.7722
 Frc consts  --      1.1375                 2.5245                 2.4639
 IR Inten    --      5.6174                25.2969                 9.6925

                     31                     32                     33
                      A                      A                      A
 Frequencies --    453.6602               506.5249               563.0752
 Red. masses --     13.9186                 1.1331                 1.0544
 Frc consts  --      1.6877                 0.1713                 0.1970
 IR Inten    --     28.1336                12.7003                 7.5610

                     34                     35                     36
                      A                      A                      A
 Frequencies --    570.3459               624.2421               645.2100
 Red. masses --      1.0666                 1.0684                 1.0764
 Frc consts  --      0.2044                 0.2453                 0.2640
 IR Inten    --     16.4880                13.9126                14.2047

                     37                     38                     39
                      A                      A                      A
 Frequencies --    661.6924               751.9340              1221.3745
 Red. masses --      1.0607                 1.0524                 1.0383
 Frc consts  --      0.2736                 0.3506                 0.9126
 IR Inten    --      0.9364                 2.8534                 2.9518

                     40                     41                     42
                      A                      A                      A
 Frequencies --   2526.6848              2641.2931              2645.7984
 Red. masses --      1.0389                 1.0385                 1.0384
 Frc consts  --      3.9076                 4.2686                 4.2829
 IR Inten    --     26.1268                 4.6650                16.6770

                     43                     44                     45
                      A                      A                      A
 Frequencies --   2663.1407              2674.6176              2686.6076
 Red. masses --      1.0361                 1.0387                 1.0394
 Frc consts  --      4.3296                 4.3779                 4.4204
 IR Inten    --      3.2477                 0.9468                 0.8712

 - Thermochemistry -
 -------------------
 Temperature   298.150 Kelvin.  Pressure   1.00000 Atm.
 Atom     1 has atomic number 42 and mass  97.90550

 Molecular mass:   555.54002 amu.
 Principal axes and moments of inertia in atomic units:
                           1         2         3
     Eigenvalues --  6435.191126913.43621**********
           X            0.99203   0.08885  -0.08939
           Y           -0.01049   0.76499   0.64395
           Z            0.12560  -0.63788   0.75983
 This molecule is an asymmetric top.
 Rotational symmetry number  1.
 Warning -- assumption of classical behavior for rotation
           may cause significant error
 Rotational temperatures (Kelvin)      0.01346     0.01253     0.00844
 Rotational constants (GHZ):           0.28045     0.26105     0.17590
 Zero-point vibrational energy     170585.5 (Joules/Mol)
                                   40.77092 (Kcal/Mol)
 Warning -- explicit consideration of  34 degrees of freedom as
           vibrations may cause significant error
 Vibrational temperatures:     48.49    66.27    76.07   101.33   135.85
          (Kelvin)            155.66   160.90   186.62   195.70   219.54
                              226.33   232.91   251.25   274.88   289.49
                              300.10   349.19   379.59   383.46   415.17
                              432.55   448.01   469.82   490.62   503.22
                              515.37   519.41   537.34   620.34   630.56
                              652.72   728.78   810.14   820.60   898.15
                              928.31   952.03  1081.87  1757.29  3635.34
                             3800.23  3806.71  3831.67  3848.18  3865.43

 Zero-point correction=                           0.064973 (Hartree/Particle)
 Thermal correction to Energy=                    0.085600
 Thermal correction to Enthalpy=                  0.086544
 Thermal correction to Gibbs Free Energy=         0.013850
 Sum of electronic and zero-point Energies=          -3391.964548
 Sum of electronic and thermal Energies=             -3391.943920
 Sum of electronic and thermal Enthalpies=           -3391.942976
 Sum of electronic and thermal Free Energies=        -3392.015671

                     E (Thermal)             CV                S
                      KCal/Mol        Cal/Mol-Kelvin    Cal/Mol-Kelvin
 Total                   53.715             67.654            152.998
 Electronic               0.000              0.000              0.000
 Translational            0.889              2.981             44.829
 Rotational               0.889              2.981             34.478
 Vibrational             51.937             61.693             73.691
 Vibration     1          0.594              1.983              5.599
 Vibration     2          0.595              1.979              4.980
 Vibration     3          0.596              1.976              4.707
 Vibration     4          0.598              1.968              4.141
 Vibration     5          0.603              1.953              3.566
 Vibration     6          0.606              1.943              3.301
 Vibration     7          0.607              1.940              3.237
 Vibration     8          0.612              1.924              2.950
 Vibration     9          0.614              1.917              2.859
 Vibration    10          0.619              1.900              2.640
 Vibration    11          0.621              1.894              2.582
 Vibration    12          0.622              1.889              2.528
 Vibration    13          0.627              1.874              2.385
 Vibration    14          0.634              1.852              2.218
 Vibration    15          0.638              1.838              2.122
 Vibration    16          0.642              1.828              2.056
 Vibration    17          0.659              1.775              1.783
 Vibration    18          0.670              1.739              1.636
 Vibration    19          0.672              1.735              1.619
 Vibration    20          0.685              1.695              1.482
 Vibration    21          0.693              1.672              1.413
 Vibration    22          0.700              1.652              1.355
 Vibration    23          0.710              1.622              1.277
 Vibration    24          0.721              1.594              1.207
 Vibration    25          0.727              1.576              1.167
 Vibration    26          0.733              1.558              1.130
 Vibration    27          0.735              1.553              1.118
 Vibration    28          0.745              1.527              1.066
 Vibration    29          0.792              1.402              0.855
 Vibration    30          0.798              1.387              0.832
 Vibration    31          0.812              1.353              0.785
 Vibration    32          0.862              1.236              0.642
 Vibration    33          0.919              1.111              0.518
 Vibration    34          0.926              1.095              0.504

                           ! Non-Optimized Parameters !
 Normal termination of Gaussian 16 at Wed Oct 26 14:42:21 2022.
