 Gaussian 16, Revision C.01,
 Gaussian 16:  ES64L-G16RevC.01  3-Jul-2019

 --------------------------------------------------------
 # opt=(qst2,redundant) freq b3lyp/gen nosymm pseudo=read
 --------------------------------------------------------

 -------------------
 Title Card Required
 -------------------
 Symbolic Z-matrix:
 Charge =  0 Multiplicity = 1

 -------
 product
 -------
 Symbolic Z-matrix:
 Charge =  0 Multiplicity = 1

 SCF Done:  E(RB3LYP) =  -3391.92521603     A.U. after   28 cycles
 SCF Done:  E(RB3LYP) =  -3391.92660297     A.U. after   19 cycles
 SCF Done:  E(RB3LYP) =  -3391.94149424     A.U. after   19 cycles
 SCF Done:  E(RB3LYP) =  -3391.95379409     A.U. after   19 cycles
 SCF Done:  E(RB3LYP) =  -3391.96340536     A.U. after   19 cycles
 SCF Done:  E(RB3LYP) =  -3391.96735450     A.U. after   19 cycles
 SCF Done:  E(RB3LYP) =  -3391.96789219     A.U. after   19 cycles
 SCF Done:  E(RB3LYP) =  -3391.97003690     A.U. after   19 cycles
 SCF Done:  E(RB3LYP) =  -3391.97316878     A.U. after   19 cycles
 SCF Done:  E(RB3LYP) =  -3391.97698280     A.U. after   19 cycles
 SCF Done:  E(RB3LYP) =  -3391.98645652     A.U. after   14 cycles
 SCF Done:  E(RB3LYP) =  -3391.98645711     A.U. after   14 cycles
 SCF Done:  E(RB3LYP) =  -3391.98645762     A.U. after   14 cycles
 SCF Done:  E(RB3LYP) =  -3391.98645790     A.U. after   13 cycles
 SCF Done:  E(RB3LYP) =  -3391.98645810     A.U. after   13 cycles
 SCF Done:  E(RB3LYP) =  -3391.98645819     A.U. after   12 cycles
 SCF Done:  E(RB3LYP) =  -3391.98645828     A.U. after   12 cycles
 SCF Done:  E(RB3LYP) =  -3391.98645833     A.U. after   13 cycles
 SCF Done:  E(RB3LYP) =  -3391.98645834     A.U. after   11 cycles
 Optimization completed.
    -- Stationary point found.
 Normal termination of Gaussian 16 at Fri Jul  7 19:38:55 2023.

 ------------------------------------------------------------------
 #N Geom=AllCheck Guess=TCheck SCRF=Check GenChk RB3LYP/ChkBas Freq
 ------------------------------------------------------------------

 Structure from the checkpoint file:  "/localscratch/chesha/scratch/Gau-8308.chk"
 -------------------
 Title Card Required
 -------------------
 Charge =  0 Multiplicity = 1

                          Input orientation:
 ---------------------------------------------------------------------
 Center     Atomic      Atomic             Coordinates (Angstroms)
 Number     Number       Type             X           Y           Z
 ---------------------------------------------------------------------
      1         42           0       -0.489109    1.663692   11.661983
      2         16           0        0.269935    3.742533   11.676856
      3         16           0       -2.671180    1.803585   12.420004
      4         16           0       -0.573289    0.895072    9.419297
      5         16           0        0.930787    0.058241   12.610588
      6          1           0        0.279466   -1.080296   12.284310
      7         42           0       -2.658073    1.848509   10.124390
      8         16           0       -3.880825    0.344643    8.834205
      9          1           0       -2.990530   -0.381799    8.126376
     10         16           0       -2.540919    4.311670    9.849511
     11          1           0       -3.129272    4.488333    8.646236
     12         42           0       -0.367309    3.292227    9.319604
     13         16           0        0.901604    5.255637    8.694945
     14          1           0        1.215694    5.788045    9.892814
     15         16           0        0.248135    2.858464    6.877412
     16          1           0       -1.159196    3.549168    7.806573
     17          1           0       -0.588497    1.850737    6.556118
 ---------------------------------------------------------------------

 SCF Done:  E(RB3LYP) =  -3391.98645834     A.U. after    1 cycles

 Alpha  occ. eigenvalues --  -88.91930 -88.90544 -88.90065 -88.89125 -88.88731
 Alpha  occ. eigenvalues --  -88.88535 -88.87672 -88.84989  -7.99499  -7.98209
 Alpha  occ. eigenvalues --   -7.97991  -7.96998  -7.96576  -7.96313  -7.95164
 Alpha  occ. eigenvalues --   -7.92676  -5.95735  -5.95374  -5.95270  -5.94209
 Alpha  occ. eigenvalues --   -5.94200  -5.94077  -5.93935  -5.93930  -5.93914
 Alpha  occ. eigenvalues --   -5.93253  -5.92862  -5.92833  -5.92716  -5.92451
 Alpha  occ. eigenvalues --   -5.92366  -5.92280  -5.92264  -5.92150  -5.91492
 Alpha  occ. eigenvalues --   -5.91253  -5.90637  -5.88964  -5.88565  -5.88365
 Alpha  occ. eigenvalues --   -2.55806  -2.54969  -2.52261  -1.59502  -1.58421
 Alpha  occ. eigenvalues --   -1.57819  -1.57332  -1.57275  -1.56205  -1.54700
 Alpha  occ. eigenvalues --   -1.54454  -1.53936  -0.77106  -0.75062  -0.74369
 Alpha  occ. eigenvalues --   -0.73880  -0.72903  -0.72590  -0.71011  -0.69852
 Alpha  occ. eigenvalues --   -0.47415  -0.45538  -0.44717  -0.44223  -0.41331
 Alpha  occ. eigenvalues --   -0.40232  -0.39730  -0.39167  -0.38616  -0.38023
 Alpha  occ. eigenvalues --   -0.37873  -0.36352  -0.36223  -0.35963  -0.34393
 Alpha  occ. eigenvalues --   -0.33926  -0.33194  -0.31730  -0.31383  -0.31059
 Alpha  occ. eigenvalues --   -0.30076  -0.29342  -0.28861  -0.27798  -0.27517
 Alpha  occ. eigenvalues --   -0.24968  -0.23237  -0.22214
 Alpha virt. eigenvalues --   -0.15374  -0.14924  -0.13652  -0.13115  -0.12246
 Alpha virt. eigenvalues --   -0.10846  -0.09838  -0.09570  -0.08213  -0.07572
 Alpha virt. eigenvalues --   -0.05481  -0.03174  -0.01392  -0.00526   0.00513

 Mulliken charges:
               1
     1  Mo   0.096823
     2  S   -0.033898
     3  S   -0.053694
     4  S    0.088723
     5  S   -0.136574
     6  H    0.101415
     7  Mo   0.045678
     8  S   -0.148767
     9  H    0.103163
    10  S    0.102265
    11  H    0.120416
    12  Mo  -0.432379
    13  S   -0.077608
    14  H    0.071414
    15  S    0.033330
    16  H    0.049877
    17  H    0.069817
 Sum of Mulliken charges =   0.00000

 Dipole moment (field-independent basis, Debye):
    X=             -3.4544    Y=             -2.5912    Z=              0.6304  Tot=              4.3640
 Quadrupole moment (field-independent basis, Debye-Ang):
   XX=           -174.5765   YY=           -186.6264   ZZ=           -169.6571
   XY=            -11.1415   XZ=            -28.4722   YZ=            -18.9321

  Exact polarizability:     286.706      43.382     300.479       6.538     -39.851     308.979
 Approx polarizability:     777.514     158.134     772.654      12.062     -88.503     793.253

 ******    1 imaginary frequencies (negative Signs) ******

                      1                      2                      3
                      A                      A                      A
 Frequencies --   -467.8845                32.2094                38.9291
 Red. masses --      1.3598                 6.3364                10.5414
 Frc consts  --      0.1754                 0.0039                 0.0094
 IR Inten    --    683.3500                 0.9506                 2.0473

                      4                      5                      6
                      A                      A                      A
 Frequencies --     48.6877                62.8876                87.3584
 Red. masses --     15.5968                12.3274                14.6242
 Frc consts  --      0.0218                 0.0287                 0.0658
 IR Inten    --      0.2312                 0.6618                 0.6870

                      7                      8                      9
                      A                      A                      A
 Frequencies --    111.6538               125.4122               129.2905
 Red. masses --     13.8152                12.5917                21.1057
 Frc consts  --      0.1015                 0.1167                 0.2079
 IR Inten    --      0.5304                 0.3623                 0.5846

                     10                     11                     12
                      A                      A                      A
 Frequencies --    144.8059               153.7010               170.3295
 Red. masses --     14.3941                16.4824                16.9359
 Frc consts  --      0.1778                 0.2294                 0.2895
 IR Inten    --      0.1336                 3.4119                 3.5870

                     13                     14                     15
                      A                      A                      A
 Frequencies --    174.1849               201.2525               207.4704
 Red. masses --     13.6492                11.8749                 7.3079
 Frc consts  --      0.2440                 0.2834                 0.1853
 IR Inten    --      3.7773                 4.3411                19.6519

                     16                     17                     18
                      A                      A                      A
 Frequencies --    224.6959               248.1346               256.1529
 Red. masses --      1.2866                 5.1437                 2.5201
 Frc consts  --      0.0383                 0.1866                 0.0974
 IR Inten    --      1.8784                13.1599                 1.5809

                     19                     20                     21
                      A                      A                      A
 Frequencies --    268.7995               278.4184               289.1631
 Red. masses --      2.5300                 1.5283                 4.6067
 Frc consts  --      0.1077                 0.0698                 0.2269
 IR Inten    --      1.7433                 8.1249                 8.6561

                     22                     23                     24
                      A                      A                      A
 Frequencies --    300.5544               318.4911               326.6760
 Red. masses --      9.3737                10.3734                12.1440
 Frc consts  --      0.4989                 0.6200                 0.7636
 IR Inten    --      4.4258                 2.9501                22.8681

                     25                     26                     27
                      A                      A                      A
 Frequencies --    342.1918               355.9836               365.9979
 Red. masses --      9.5395                 1.7798                 4.0269
 Frc consts  --      0.6581                 0.1329                 0.3178
 IR Inten    --      6.0623                51.7554                52.9338

                     28                     29                     30
                      A                      A                      A
 Frequencies --    368.3132               386.0019               432.5592
 Red. masses --     10.6666                 7.9217                20.1555
 Frc consts  --      0.8525                 0.6954                 2.2220
 IR Inten    --    100.3612                72.5112                 4.8110

                     31                     32                     33
                      A                      A                      A
 Frequencies --    456.0960               467.5701               538.9496
 Red. masses --     14.0415                 7.4513                 1.1301
 Frc consts  --      1.7210                 0.9598                 0.1934
 IR Inten    --     22.3264                45.0360                13.0664

                     34                     35                     36
                      A                      A                      A
 Frequencies --    543.0717               601.5873               615.6281
 Red. masses --      1.2063                 1.0593                 1.0799
 Frc consts  --      0.2096                 0.2259                 0.2411
 IR Inten    --     12.0077                18.8435                16.0299

                     37                     38                     39
                      A                      A                      A
 Frequencies --    701.7921               739.9674               842.9881
 Red. masses --      1.0429                 1.0409                 1.0382
 Frc consts  --      0.3026                 0.3358                 0.4347
 IR Inten    --      9.5882                 9.7334                23.4219

                     40                     41                     42
                      A                      A                      A
 Frequencies --   1742.7122              2649.0592              2666.4108
 Red. masses --      1.0171                 1.0390                 1.0381
 Frc consts  --      1.8199                 4.2959                 4.3485
 IR Inten    --     41.3785                 0.6476                 3.6819

                     43                     44                     45
                      A                      A                      A
 Frequencies --   2669.4537              2681.5127              2684.4450
 Red. masses --      1.0386                 1.0385                 1.0386
 Frc consts  --      4.3604                 4.3995                 4.4098
 IR Inten    --      0.2028                 5.3601                 3.0236

 - Thermochemistry -
 -------------------
 Temperature   298.150 Kelvin.  Pressure   1.00000 Atm.
 Atom     1 has atomic number 42 and mass  97.90550

 Molecular mass:   555.54002 amu.
 Principal axes and moments of inertia in atomic units:
                           1         2         3
     Eigenvalues --  6265.747287834.20011**********
           X           -0.35617   0.81658  -0.45425
           Y           -0.65584   0.12781   0.74400
           Z            0.66559   0.56291   0.49002
 This molecule is an asymmetric top.
 Rotational symmetry number  1.
 Warning -- assumption of classical behavior for rotation
           may cause significant error
 Rotational temperatures (Kelvin)      0.01382     0.01106     0.00857
 Rotational constants (GHZ):           0.28803     0.23037     0.17848
    1 imaginary frequencies ignored.
 Zero-point vibrational energy     161804.2 (Joules/Mol)
                                   38.67213 (Kcal/Mol)
 Warning -- explicit consideration of  35 degrees of freedom as
           vibrations may cause significant error
 Vibrational temperatures:     46.34    56.01    70.05    90.48   125.69
          (Kelvin)            160.64   180.44   186.02   208.34   221.14
                              245.07   250.61   289.56   298.50   323.29
                              357.01   368.55   386.74   400.58   416.04
                              432.43   458.24   470.01   492.34   512.18
                              526.59   529.92   555.37   622.36   656.22
                              672.73   775.43   781.36   865.55   885.75
                             1009.72  1064.65  1212.87  2507.37  3811.41
                             3836.37  3840.75  3858.10  3862.32

 Zero-point correction=                           0.061628 (Hartree/Particle)
 Thermal correction to Energy=                    0.081822
 Thermal correction to Enthalpy=                  0.082766
 Thermal correction to Gibbs Free Energy=         0.010749
 Sum of electronic and zero-point Energies=          -3391.924830
 Sum of electronic and thermal Energies=             -3391.904637
 Sum of electronic and thermal Enthalpies=           -3391.903692
 Sum of electronic and thermal Free Energies=        -3391.975709

                     E (Thermal)             CV                S
                      KCal/Mol        Cal/Mol-Kelvin    Cal/Mol-Kelvin
 Total                   51.344             66.593            151.573
 Electronic               0.000              0.000              0.000
 Translational            0.889              2.981             44.829
 Rotational               0.889              2.981             34.561
 Vibrational             49.567             60.631             72.182
 Vibration     1          0.594              1.983              5.688
 Vibration     2          0.594              1.981              5.313
 Vibration     3          0.595              1.978              4.870
 Vibration     4          0.597              1.972              4.364
 Vibration     5          0.601              1.958              3.718
 Vibration     6          0.607              1.940              3.240
 Vibration     7          0.610              1.928              3.015
 Vibration     8          0.612              1.924              2.957
 Vibration     9          0.616              1.908              2.739
 Vibration    10          0.619              1.899              2.626
 Vibration    11          0.625              1.879              2.432
 Vibration    12          0.627              1.874              2.390
 Vibration    13          0.638              1.838              2.122
 Vibration    14          0.641              1.829              2.066
 Vibration    15          0.649              1.803              1.921
 Vibration    16          0.662              1.766              1.744
 Vibration    17          0.666              1.752              1.688
 Vibration    18          0.673              1.731              1.604
 Vibration    19          0.679              1.713              1.543
 Vibration    20          0.686              1.694              1.479
 Vibration    21          0.693              1.673              1.414
 Vibration    22          0.705              1.638              1.318
 Vibration    23          0.710              1.622              1.276
 Vibration    24          0.721              1.591              1.202
 Vibration    25          0.731              1.563              1.140
 Vibration    26          0.739              1.542              1.097
 Vibration    27          0.741              1.537              1.087
 Vibration    28          0.755              1.500              1.016
 Vibration    29          0.793              1.399              0.850
 Vibration    30          0.814              1.347              0.778
 Vibration    31          0.825              1.322              0.744
 Vibration    32          0.894              1.164              0.568
 Vibration    33          0.898              1.155              0.559
 Vibration    34          0.960              1.028              0.447
 Vibration    35          0.975              0.999              0.424

 Optimization completed.
    -- Stationary point found.
 Normal termination of Gaussian 16 at Fri Jul  7 19:40:04 2023.
