 Gaussian 16, Revision C.01,
 Gaussian 16:  ES64L-G16RevC.01  3-Jul-2019

 ---------------------------------------
 # opt freq b3lyp/gen nosymm pseudo=read
 ---------------------------------------

 -------------------
 Title Card Required
 -------------------
 Symbolic Z-matrix:
 Charge =  0 Multiplicity = 1

 SCF Done:  E(RB3LYP) =  -3391.99046907     A.U. after   25 cycles
 Optimization completed.
    -- Stationary point found.
 Normal termination of Gaussian 16 at Sat Jul  8 01:25:57 2023.

 ------------------------------------------------------------------
 #N Geom=AllCheck Guess=TCheck SCRF=Check GenChk RB3LYP/ChkBas Freq
 ------------------------------------------------------------------

 Structure from the checkpoint file:  "/localscratch/chegho/Gau-200676.chk"
 -------------------
 Title Card Required
 -------------------
 Charge =  0 Multiplicity = 1

                          Input orientation:
 ---------------------------------------------------------------------
 Center     Atomic      Atomic             Coordinates (Angstroms)
 Number     Number       Type             X           Y           Z
 ---------------------------------------------------------------------
      1         42           0       -0.347239    2.130352   11.509925
      2         16           0        0.527313    4.030461   10.892320
      3         16           0       -2.534227    2.307766   12.253314
      4         16           0       -0.364315    0.842565    9.561217
      5         16           0        1.100439    1.105579   13.036352
      6          1           0        0.320729    0.044439   13.347779
      7         42           0       -2.569444    1.501076   10.087596
      8         16           0       -3.499542   -0.532504    9.391814
      9          1           0       -2.653876   -1.030638    8.463781
     10         16           0       -3.383986    3.154237    8.518786
     11          1           0       -3.496604    2.297951    7.478240
     12         42           0       -0.867538    3.262862    8.859585
     13         16           0       -1.498108    5.545823    8.736312
     14          1           0       -0.329544    6.148525    9.049419
     15         16           0        1.234233    3.297271    7.651708
     16          1           0       -0.962817    2.557647    7.344351
     17          1           0        2.121947    3.625049    8.618725
 ---------------------------------------------------------------------

 SCF Done:  E(RB3LYP) =  -3391.99046907     A.U. after    1 cycles

 Alpha  occ. eigenvalues --  -88.92014 -88.90427 -88.89734 -88.89380 -88.88966
 Alpha  occ. eigenvalues --  -88.88787 -88.87367 -88.85695  -7.99717  -7.98101
 Alpha  occ. eigenvalues --   -7.97592  -7.97182  -7.96799  -7.96638  -7.95092
 Alpha  occ. eigenvalues --   -7.93279  -5.95920  -5.95583  -5.95503  -5.94108
 Alpha  occ. eigenvalues --   -5.94094  -5.93952  -5.93566  -5.93546  -5.93488
 Alpha  occ. eigenvalues --   -5.93199  -5.93134  -5.93053  -5.93045  -5.92896
 Alpha  occ. eigenvalues --   -5.92650  -5.92529  -5.92497  -5.92361  -5.91349
 Alpha  occ. eigenvalues --   -5.90951  -5.90829  -5.89588  -5.89247  -5.88883
 Alpha  occ. eigenvalues --   -2.56033  -2.55266  -2.53777  -1.59233  -1.58948
 Alpha  occ. eigenvalues --   -1.58030  -1.57965  -1.57451  -1.56629  -1.56615
 Alpha  occ. eigenvalues --   -1.55363  -1.54953  -0.77599  -0.74836  -0.74337
 Alpha  occ. eigenvalues --   -0.73581  -0.72548  -0.72438  -0.71390  -0.70173
 Alpha  occ. eigenvalues --   -0.47543  -0.45081  -0.44126  -0.43235  -0.42429
 Alpha  occ. eigenvalues --   -0.40241  -0.39660  -0.39483  -0.38857  -0.38215
 Alpha  occ. eigenvalues --   -0.37508  -0.36478  -0.35373  -0.34757  -0.34653
 Alpha  occ. eigenvalues --   -0.33779  -0.33320  -0.31951  -0.31803  -0.30569
 Alpha  occ. eigenvalues --   -0.30222  -0.30058  -0.29708  -0.29179  -0.27126
 Alpha  occ. eigenvalues --   -0.26413  -0.23743  -0.23004
 Alpha virt. eigenvalues --   -0.15553  -0.15144  -0.14634  -0.13139  -0.12734
 Alpha virt. eigenvalues --   -0.12377  -0.10747  -0.09299  -0.08832  -0.07225
 Alpha virt. eigenvalues --   -0.05335  -0.03284  -0.02004  -0.00895   0.00431

 Mulliken charges:
               1
     1  Mo   0.115498
     2  S   -0.060815
     3  S   -0.073752
     4  S    0.166987
     5  S   -0.120345
     6  H    0.101048
     7  Mo  -0.035812
     8  S   -0.135252
     9  H    0.103514
    10  S    0.017983
    11  H    0.139747
    12  Mo  -0.372038
    13  S   -0.030941
    14  H    0.091593
    15  S   -0.001601
    16  H    0.034324
    17  H    0.059862
 Sum of Mulliken charges =  -0.00000

 Dipole moment (field-independent basis, Debye):
    X=             -1.5832    Y=             -1.9686    Z=              0.9387  Tot=              2.6950
 Quadrupole moment (field-independent basis, Debye-Ang):
   XX=           -176.0121   YY=           -184.6846   ZZ=           -161.2938
   XY=              1.3990   XZ=            -10.7831   YZ=            -15.7294

  Exact polarizability:     306.990      41.842     307.304      23.270     -42.242     299.375
 Approx polarizability:     890.173     174.359     820.789      18.801    -109.303     796.617

                      1                      2                      3
                      A                      A                      A
 Frequencies --     22.1013                47.1024                53.0833
 Red. masses --      9.4112                11.0836                11.4312
 Frc consts  --      0.0027                 0.0145                 0.0190
 IR Inten    --      2.4949                 0.2148                 0.1465

                      4                      5                      6
                      A                      A                      A
 Frequencies --     65.4786                68.9042                96.6838
 Red. masses --      9.6398                11.9144                 8.8381
 Frc consts  --      0.0244                 0.0333                 0.0487
 IR Inten    --      0.9750                 0.1712                 2.2407

                      7                      8                      9
                      A                      A                      A
 Frequencies --    106.6962               118.6550               126.7461
 Red. masses --     10.9467                18.6001                20.4504
 Frc consts  --      0.0734                 0.1543                 0.1936
 IR Inten    --      1.6291                 0.2917                 2.2322

                     10                     11                     12
                      A                      A                      A
 Frequencies --    130.4888               149.2941               169.5494
 Red. masses --     16.8816                24.6538                13.4673
 Frc consts  --      0.1694                 0.3238                 0.2281
 IR Inten    --      1.8367                 0.1280                 1.5626

                     13                     14                     15
                      A                      A                      A
 Frequencies --    189.7260               204.5092               216.4888
 Red. masses --     18.3246                21.3546                11.0867
 Frc consts  --      0.3886                 0.5262                 0.3061
 IR Inten    --      1.0216                 1.1211                 1.4388

                     16                     17                     18
                      A                      A                      A
 Frequencies --    222.6822               247.1030               253.3434
 Red. masses --     12.8776                 2.2450                 3.9526
 Frc consts  --      0.3762                 0.0808                 0.1495
 IR Inten    --      6.2170                 5.3956                 3.7238

                     19                     20                     21
                      A                      A                      A
 Frequencies --    282.0583               298.6177               311.9492
 Red. masses --      1.8858                 2.5136                 1.3395
 Frc consts  --      0.0884                 0.1321                 0.0768
 IR Inten    --      5.3423                 3.9009                 5.5600

                     22                     23                     24
                      A                      A                      A
 Frequencies --    317.6577               337.6041               344.4115
 Red. masses --     16.6090                10.7700                 8.7100
 Frc consts  --      0.9874                 0.7232                 0.6087
 IR Inten    --     25.6104                46.6676                12.6858

                     25                     26                     27
                      A                      A                      A
 Frequencies --    350.4158               365.2846               373.3280
 Red. masses --     13.9958                 9.0608                10.0469
 Frc consts  --      1.0125                 0.7123                 0.8250
 IR Inten    --     21.2092                47.7820                52.6112

                     28                     29                     30
                      A                      A                      A
 Frequencies --    392.9293               431.1994               451.8707
 Red. masses --      1.2541                24.3198                15.5910
 Frc consts  --      0.1141                 2.6642                 1.8757
 IR Inten    --     29.2814                 0.0883                20.9633

                     31                     32                     33
                      A                      A                      A
 Frequencies --    488.0181               548.7147               572.6955
 Red. masses --      8.2248                 1.1711                 1.0563
 Frc consts  --      1.1541                 0.2078                 0.2041
 IR Inten    --     24.3783                16.0092                 9.6662

                     34                     35                     36
                      A                      A                      A
 Frequencies --    590.0609               610.5436               671.7422
 Red. masses --      1.1004                 1.0530                 1.0547
 Frc consts  --      0.2257                 0.2313                 0.2804
 IR Inten    --      8.2052                 6.0382                12.3904

                     37                     38                     39
                      A                      A                      A
 Frequencies --    697.0276               740.5593               908.0408
 Red. masses --      1.0495                 1.0461                 1.0250
 Frc consts  --      0.3004                 0.3380                 0.4980
 IR Inten    --     13.3014                12.6070                13.0940

                     40                     41                     42
                      A                      A                      A
 Frequencies --   1883.8414              2640.1606              2647.3111
 Red. masses --      1.0188                 1.0383                 1.0380
 Frc consts  --      2.1302                 4.2641                 4.2861
 IR Inten    --     40.6153                 9.2254                 1.5377

                     43                     44                     45
                      A                      A                      A
 Frequencies --   2654.3132              2660.5732              2663.1158
 Red. masses --      1.0380                 1.0381                 1.0384
 Frc consts  --      4.3087                 4.3296                 4.3391
 IR Inten    --      3.6838                 1.7570                 0.7138

 - Thermochemistry -
 -------------------
 Temperature   298.150 Kelvin.  Pressure   1.00000 Atm.
 Atom     1 has atomic number 42 and mass  97.90550

 Molecular mass:   555.54002 amu.
 Principal axes and moments of inertia in atomic units:
                           1         2         3
     Eigenvalues --  6636.985317169.10438**********
           X           -0.09925   0.86012  -0.50033
           Y           -0.67651   0.31041   0.66782
           Z            0.72972   0.40476   0.55108
 This molecule is an asymmetric top.
 Rotational symmetry number  1.
 Warning -- assumption of classical behavior for rotation
           may cause significant error
 Rotational temperatures (Kelvin)      0.01305     0.01208     0.00847
 Rotational constants (GHZ):           0.27192     0.25174     0.17656
 Zero-point vibrational energy     165818.5 (Joules/Mol)
                                   39.63156 (Kcal/Mol)
 Warning -- explicit consideration of  35 degrees of freedom as
           vibrations may cause significant error
 Vibrational temperatures:     31.80    67.77    76.37    94.21    99.14
          (Kelvin)            139.11   153.51   170.72   182.36   187.74
                              214.80   243.94   272.97   294.24   311.48
                              320.39   355.53   364.50   405.82   429.64
                              448.83   457.04   485.74   495.53   504.17
                              525.56   537.14   565.34   620.40   650.14
                              702.15   789.48   823.98   848.97   878.44
                              966.49  1002.87  1065.50  1306.47  2710.43
                             3798.60  3808.89  3818.96  3827.97  3831.63

 Zero-point correction=                           0.063157 (Hartree/Particle)
 Thermal correction to Energy=                    0.083717
 Thermal correction to Enthalpy=                  0.084661
 Thermal correction to Gibbs Free Energy=         0.011336
 Sum of electronic and zero-point Energies=          -3391.927312
 Sum of electronic and thermal Energies=             -3391.906752
 Sum of electronic and thermal Enthalpies=           -3391.905808
 Sum of electronic and thermal Free Energies=        -3391.979133

                     E (Thermal)             CV                S
                      KCal/Mol        Cal/Mol-Kelvin    Cal/Mol-Kelvin
 Total                   52.533             67.445            154.325
 Electronic               0.000              0.000              0.000
 Translational            0.889              2.981             44.829
 Rotational               0.889              2.981             34.541
 Vibrational             50.756             61.484             74.955
 Vibration     1          0.593              1.985              6.436
 Vibration     2          0.595              1.979              4.935
 Vibration     3          0.596              1.976              4.699
 Vibration     4          0.597              1.971              4.285
 Vibration     5          0.598              1.969              4.184
 Vibration     6          0.603              1.952              3.520
 Vibration     7          0.606              1.944              3.328
 Vibration     8          0.609              1.934              3.122
 Vibration     9          0.611              1.926              2.995
 Vibration    10          0.612              1.923              2.939
 Vibration    11          0.618              1.903              2.681
 Vibration    12          0.625              1.880              2.440
 Vibration    13          0.633              1.854              2.231
 Vibration    14          0.640              1.833              2.092
 Vibration    15          0.645              1.816              1.988
 Vibration    16          0.648              1.807              1.937
 Vibration    17          0.661              1.768              1.751
 Vibration    18          0.665              1.757              1.707
 Vibration    19          0.681              1.707              1.521
 Vibration    20          0.692              1.676              1.425
 Vibration    21          0.700              1.651              1.352
 Vibration    22          0.704              1.640              1.322
 Vibration    23          0.718              1.600              1.223
 Vibration    24          0.723              1.587              1.192
 Vibration    25          0.727              1.574              1.164
 Vibration    26          0.739              1.544              1.100
 Vibration    27          0.745              1.527              1.066
 Vibration    28          0.760              1.485              0.989
 Vibration    29          0.792              1.402              0.855
 Vibration    30          0.811              1.357              0.790
 Vibration    31          0.844              1.277              0.689
 Vibration    32          0.904              1.142              0.547
 Vibration    33          0.929              1.090              0.499
 Vibration    34          0.947              1.053              0.467
 Vibration    35          0.970              1.010              0.432

                           ! Non-Optimized Parameters !
 Normal termination of Gaussian 16 at Sat Jul  8 01:28:32 2023.
