 Gaussian 16, Revision C.01,
 Gaussian 16:  ES64L-G16RevC.01  3-Jul-2019

 ---------------------------------------
 # opt freq b3lyp/gen nosymm pseudo=read
 ---------------------------------------

 -------------------
 Title Card Required
 -------------------
 Symbolic Z-matrix:
 Charge =  0 Multiplicity = 1

 SCF Done:  E(RB3LYP) =  -806.935440435     A.U. after   16 cycles
 SCF Done:  E(RB3LYP) =  -806.937865394     A.U. after   14 cycles
 SCF Done:  E(RB3LYP) =  -806.939379451     A.U. after   14 cycles
 SCF Done:  E(RB3LYP) =  -806.940315149     A.U. after   14 cycles
 SCF Done:  E(RB3LYP) =  -806.940665159     A.U. after   13 cycles
 SCF Done:  E(RB3LYP) =  -806.940834770     A.U. after   13 cycles
 SCF Done:  E(RB3LYP) =  -806.940960426     A.U. after   13 cycles
 SCF Done:  E(RB3LYP) =  -806.941086668     A.U. after   12 cycles
 SCF Done:  E(RB3LYP) =  -806.941186375     A.U. after   12 cycles
 SCF Done:  E(RB3LYP) =  -806.941265984     A.U. after   13 cycles
 SCF Done:  E(RB3LYP) =  -806.947231041     A.U. after   13 cycles
 SCF Done:  E(RB3LYP) =  -806.947240539     A.U. after   11 cycles
 SCF Done:  E(RB3LYP) =  -806.947246417     A.U. after   11 cycles
 SCF Done:  E(RB3LYP) =  -806.947264402     A.U. after   11 cycles
 SCF Done:  E(RB3LYP) =  -806.947275543     A.U. after   12 cycles
 SCF Done:  E(RB3LYP) =  -806.947281760     A.U. after   12 cycles
 SCF Done:  E(RB3LYP) =  -806.947284016     A.U. after   11 cycles
 SCF Done:  E(RB3LYP) =  -806.947285463     A.U. after   11 cycles
 SCF Done:  E(RB3LYP) =  -806.947285512     A.U. after    9 cycles
 Optimization completed.
    -- Stationary point found.
 Normal termination of Gaussian 16 at Thu Mar 10 17:31:10 2022.

 ------------------------------------------------------------------
 #N Geom=AllCheck Guess=TCheck SCRF=Check GenChk RB3LYP/ChkBas Freq
 ------------------------------------------------------------------

 Structure from the checkpoint file:  "/localscratch/chegho/Gau-199955.chk"
 -------------------
 Title Card Required
 -------------------
 Charge =  0 Multiplicity = 1

                          Input orientation:
 ---------------------------------------------------------------------
 Center     Atomic      Atomic             Coordinates (Angstroms)
 Number     Number       Type             X           Y           Z
 ---------------------------------------------------------------------
      1         42           0        1.481018   -0.290093   -0.625243
      2          6           0        3.128344   -1.266941   -1.112361
      3          6           0        0.639100   -1.991317   -0.262123
      4          6           0        0.897097   -0.459602   -2.459670
      5          8           0        0.541299   -0.558769   -3.566329
      6          8           0        4.103062   -1.835039   -1.393553
      7          8           0        0.127295   -3.016093   -0.040758
      8         16           0       -0.502132    1.217601    0.191557
      9          1           0       -0.387549    1.397205    1.528295
     10          1           0       -0.200813    2.510273   -0.073874
 ---------------------------------------------------------------------

 SCF Done:  E(RB3LYP) =  -806.947285512     A.U. after    1 cycles

 Alpha  occ. eigenvalues --  -88.93793 -19.19814 -19.18932 -19.18931 -10.27490
 Alpha  occ. eigenvalues --  -10.27175 -10.27172  -8.01407  -5.97748  -5.97468
 Alpha  occ. eigenvalues --   -5.96893  -2.44312  -1.47685  -1.47036  -1.46911
 Alpha  occ. eigenvalues --   -1.09871  -1.08992  -1.08946  -0.80821  -0.54542
 Alpha  occ. eigenvalues --   -0.53206  -0.52893  -0.50372  -0.44783  -0.43425
 Alpha  occ. eigenvalues --   -0.43016  -0.42783  -0.42069  -0.41842  -0.41556
 Alpha  occ. eigenvalues --   -0.40974  -0.40325  -0.40018  -0.33991  -0.21595
 Alpha  occ. eigenvalues --   -0.21311  -0.21132
 Alpha virt. eigenvalues --   -0.08119  -0.07688  -0.03577  -0.02113   0.01344
 Alpha virt. eigenvalues --    0.02475   0.02907   0.03080   0.04537   0.04691
 Alpha virt. eigenvalues --    0.05498   0.05711   0.06664   0.07935   0.15591

 Mulliken charges:
               1
     1  Mo   0.035339
     2  C    0.192114
     3  C    0.224940
     4  C    0.224930
     5  O   -0.292862
     6  O   -0.276530
     7  O   -0.292862
     8  S   -0.040131
     9  H    0.112506
    10  H    0.112555
 Sum of Mulliken charges =  -0.00000

 Dipole moment (field-independent basis, Debye):
    X=             -0.7849    Y=              6.1928    Z=              4.2204  Tot=              7.5351
 Quadrupole moment (field-independent basis, Debye-Ang):
   XX=            -75.3292   YY=            -69.9356   ZZ=            -74.7184
   XY=              6.1003   XZ=              4.2458   YZ=             -2.0625

  Exact polarizability:     112.438     -17.067      97.822      -9.928      -0.599      94.203
 Approx polarizability:     230.976     -18.241     196.071     -10.101     -11.060     199.962

                      1                      2                      3
                      A                      A                      A
 Frequencies --     48.0798                65.9960                90.2804
 Red. masses --      2.5356                11.1106                15.9780
 Frc consts  --      0.0035                 0.0285                 0.0767
 IR Inten    --      3.7078                 0.7104                 0.2332

                      4                      5                      6
                      A                      A                      A
 Frequencies --     92.9615               105.5911               106.1379
 Red. masses --     16.2771                16.6450                 1.5331
 Frc consts  --      0.0829                 0.1093                 0.0102
 IR Inten    --      1.1421                 0.9294                10.2598

                      7                      8                      9
                      A                      A                      A
 Frequencies --    199.2465               400.8079               405.4746
 Red. masses --     16.8298                 9.5206                 4.9586
 Frc consts  --      0.3937                 0.9011                 0.4803
 IR Inten    --      4.5720                 2.1717                 0.0019

                     10                     11                     12
                      A                      A                      A
 Frequencies --    413.9573               454.0453               479.4020
 Red. masses --      3.4223                 5.7078                 2.0169
 Frc consts  --      0.3455                 0.6933                 0.2731
 IR Inten    --      4.7876                21.2615                 3.1823

                     13                     14                     15
                      A                      A                      A
 Frequencies --    490.4647               503.4583               540.9582
 Red. masses --      9.6242                 6.9073                 1.6167
 Frc consts  --      1.3640                 1.0315                 0.2788
 IR Inten    --     11.2649                 1.0083                 1.5086

                     16                     17                     18
                      A                      A                      A
 Frequencies --    621.1715               629.8231               662.6289
 Red. masses --     12.8688                 4.5710                13.4315
 Frc consts  --      2.9256                 1.0683                 3.4747
 IR Inten    --      0.9873                16.3424                10.6676

                     19                     20                     21
                      A                      A                      A
 Frequencies --   1218.4231              1974.5106              1989.3694
 Red. masses --      1.0375                13.3570                13.3652
 Frc consts  --      0.9075                30.6816                31.1643
 IR Inten    --     43.1837              1114.2322              1080.5708

                     22                     23                     24
                      A                      A                      A
 Frequencies --   2068.7885              2631.8946              2640.0039
 Red. masses --     13.2523                 1.0347                 1.0402
 Frc consts  --     33.4175                 4.2228                 4.2715
 IR Inten    --    566.2289                48.6297                 0.0642

 - Thermochemistry -
 -------------------
 Temperature   298.150 Kelvin.  Pressure   1.00000 Atm.
 Atom     1 has atomic number 42 and mass  97.90550

 Molecular mass:   215.87797 amu.
 Principal axes and moments of inertia in atomic units:
                           1         2         3
     Eigenvalues --  1281.924472177.785612284.68735
           X            0.73019  -0.09632   0.67642
           Y           -0.59802  -0.56892   0.56454
           Z           -0.33045   0.81673   0.47302
 This molecule is an asymmetric top.
 Rotational symmetry number  1.
 Warning -- assumption of classical behavior for rotation
           may cause significant error
 Rotational temperatures (Kelvin)      0.06757     0.03977     0.03791
 Rotational constants (GHZ):           1.40784     0.82870     0.78993
 Zero-point vibrational energy     112649.2 (Joules/Mol)
                                   26.92380 (Kcal/Mol)
 Warning -- explicit consideration of  15 degrees of freedom as
           vibrations may cause significant error
 Vibrational temperatures:     69.18    94.95   129.89   133.75   151.92
          (Kelvin)            152.71   286.67   576.67   583.39   595.59
                              653.27   689.75   705.67   724.36   778.32
                              893.73   906.17   953.38  1753.04  2840.88
                             2862.26  2976.53  3786.71  3798.38

 Zero-point correction=                           0.042906 (Hartree/Particle)
 Thermal correction to Energy=                    0.053386
 Thermal correction to Enthalpy=                  0.054330
 Thermal correction to Gibbs Free Energy=         0.004486
 Sum of electronic and zero-point Energies=           -806.904380
 Sum of electronic and thermal Energies=              -806.893900
 Sum of electronic and thermal Enthalpies=            -806.892956
 Sum of electronic and thermal Free Energies=         -806.942800

                     E (Thermal)             CV                S
                      KCal/Mol        Cal/Mol-Kelvin    Cal/Mol-Kelvin
 Total                   33.500             33.327            104.906
 Electronic               0.000              0.000              0.000
 Translational            0.889              2.981             42.012
 Rotational               0.889              2.981             30.235
 Vibrational             31.722             27.365             32.659
 Vibration     1          0.595              1.978              4.895
 Vibration     2          0.597              1.970              4.269
 Vibration     3          0.602              1.956              3.654
 Vibration     4          0.602              1.954              3.597
 Vibration     5          0.605              1.945              3.348
 Vibration     6          0.605              1.944              3.338
 Vibration     7          0.637              1.841              2.140
 Vibration     8          0.767              1.468              0.960
 Vibration     9          0.770              1.458              0.943
 Vibration    10          0.778              1.440              0.913
 Vibration    11          0.812              1.352              0.784
 Vibration    12          0.836              1.296              0.712
 Vibration    13          0.846              1.271              0.682
 Vibration    14          0.859              1.242              0.650
 Vibration    15          0.896              1.160              0.563

 Optimization completed.
    -- Stationary point found.
 Normal termination of Gaussian 16 at Thu Mar 10 17:31:39 2022.
