 Gaussian 16, Revision C.01,
 Gaussian 16:  ES64L-G16RevC.01  3-Jul-2019

 --------------------------------------------------------
 # opt=(qst2,redundant) freq b3lyp/gen nosymm pseudo=read
 --------------------------------------------------------

 -------------------
 Title Card Required
 -------------------
 Symbolic Z-matrix:
 Charge =  0 Multiplicity = 1

 -------
 product
 -------
 Symbolic Z-matrix:
 Charge =  0 Multiplicity = 1

 SCF Done:  E(RB3LYP) =  -3391.90270566     A.U. after   27 cycles
 SCF Done:  E(RB3LYP) =  -3391.90424351     A.U. after   18 cycles
 SCF Done:  E(RB3LYP) =  -3391.91750249     A.U. after   17 cycles
 SCF Done:  E(RB3LYP) =  -3391.93088316     A.U. after   17 cycles
 SCF Done:  E(RB3LYP) =  -3391.94399978     A.U. after   18 cycles
 SCF Done:  E(RB3LYP) =  -3391.94946340     A.U. after   17 cycles
 SCF Done:  E(RB3LYP) =  -3391.95730478     A.U. after   17 cycles
 SCF Done:  E(RB3LYP) =  -3391.96477881     A.U. after   17 cycles
 SCF Done:  E(RB3LYP) =  -3391.96929711     A.U. after   18 cycles
 SCF Done:  E(RB3LYP) =  -3391.97045060     A.U. after   18 cycles
 SCF Done:  E(RB3LYP) =  -3391.99220453     A.U. after   16 cycles
 SCF Done:  E(RB3LYP) =  -3391.99220903     A.U. after   15 cycles
 SCF Done:  E(RB3LYP) =  -3391.99220968     A.U. after   12 cycles
 SCF Done:  E(RB3LYP) =  -3391.99221031     A.U. after   13 cycles
 SCF Done:  E(RB3LYP) =  -3391.99221078     A.U. after   15 cycles
 SCF Done:  E(RB3LYP) =  -3391.99221130     A.U. after   15 cycles
 SCF Done:  E(RB3LYP) =  -3391.99221157     A.U. after   13 cycles
 SCF Done:  E(RB3LYP) =  -3391.99221192     A.U. after   13 cycles
 SCF Done:  E(RB3LYP) =  -3391.99221215     A.U. after   13 cycles
 Optimization completed.
    -- Stationary point found.
 Normal termination of Gaussian 16 at Sat Jul  8 04:20:45 2023.

 ------------------------------------------------------------------
 #N Geom=AllCheck Guess=TCheck SCRF=Check GenChk RB3LYP/ChkBas Freq
 ------------------------------------------------------------------

 Structure from the checkpoint file:  "/localscratch/chegho/Gau-217705.chk"
 -------------------
 Title Card Required
 -------------------
 Charge =  0 Multiplicity = 1

                          Input orientation:
 ---------------------------------------------------------------------
 Center     Atomic      Atomic             Coordinates (Angstroms)
 Number     Number       Type             X           Y           Z
 ---------------------------------------------------------------------
      1         42           0       -0.762086    2.199547   11.738618
      2         16           0       -0.775778    4.410310   11.428869
      3         16           0       -2.904407    1.602108   12.387930
      4         16           0       -0.420891    1.084783    9.665154
      5         16           0        1.064161    1.288785   12.881385
      6          1           0        1.043294   -0.006690   12.500859
      7         42           0       -2.726439    1.415683   10.098509
      8         16           0       -3.288047   -0.577086    9.022767
      9          1           0       -2.125648   -1.217288    8.779764
     10         16           0       -3.536773    3.365492    9.173868
     11          1           0       -2.468486    3.370783    8.052721
     12         42           0       -0.795229    3.434596    9.216318
     13         16           0       -0.673158    5.744112    8.431491
     14          1           0       -0.490163    5.520800    7.113258
     15         16           0        1.360349    3.422691    8.302855
     16          1           0       -1.449124    3.102255    7.604978
     17          1           0        1.745845    2.127581    8.401877
 ---------------------------------------------------------------------

 SCF Done:  E(RB3LYP) =  -3391.99221215     A.U. after    1 cycles

 Alpha  occ. eigenvalues --  -88.91535 -88.89759 -88.89246 -88.89228 -88.89135
 Alpha  occ. eigenvalues --  -88.89023 -88.88937 -88.85316  -7.99148  -7.97687
 Alpha  occ. eigenvalues --   -7.97094  -7.97021  -7.96993  -7.96884  -7.96567
 Alpha  occ. eigenvalues --   -7.92954  -5.95180  -5.95117  -5.95020  -5.93661
 Alpha  occ. eigenvalues --   -5.93647  -5.93559  -5.93247  -5.93217  -5.93139
 Alpha  occ. eigenvalues --   -5.93053  -5.93043  -5.92993  -5.92869  -5.92859
 Alpha  occ. eigenvalues --   -5.92830  -5.92810  -5.92762  -5.92697  -5.92588
 Alpha  occ. eigenvalues --   -5.92409  -5.92343  -5.89243  -5.88905  -5.88591
 Alpha  occ. eigenvalues --   -2.56124  -2.55697  -2.55091  -1.59907  -1.58995
 Alpha  occ. eigenvalues --   -1.58365  -1.58144  -1.57851  -1.57652  -1.57052
 Alpha  occ. eigenvalues --   -1.56800  -1.56089  -0.75938  -0.74665  -0.74370
 Alpha  occ. eigenvalues --   -0.74192  -0.73128  -0.72699  -0.71719  -0.70195
 Alpha  occ. eigenvalues --   -0.50029  -0.45780  -0.44557  -0.44236  -0.42094
 Alpha  occ. eigenvalues --   -0.40556  -0.40122  -0.39888  -0.38585  -0.38098
 Alpha  occ. eigenvalues --   -0.37602  -0.37168  -0.36323  -0.35046  -0.34144
 Alpha  occ. eigenvalues --   -0.33871  -0.33093  -0.32291  -0.31961  -0.31087
 Alpha  occ. eigenvalues --   -0.30109  -0.29135  -0.28984  -0.28339  -0.27757
 Alpha  occ. eigenvalues --   -0.27058  -0.26431  -0.23106
 Alpha virt. eigenvalues --   -0.16348  -0.14623  -0.14483  -0.13722  -0.12580
 Alpha virt. eigenvalues --   -0.12515  -0.11427  -0.10316  -0.08657  -0.07844
 Alpha virt. eigenvalues --   -0.06393  -0.04410  -0.01380  -0.00398   0.00339

 Mulliken charges:
               1
     1  Mo   0.091003
     2  S    0.030871
     3  S   -0.066922
     4  S    0.105169
     5  S   -0.135407
     6  H    0.103559
     7  Mo   0.135559
     8  S   -0.128444
     9  H    0.101460
    10  S    0.049968
    11  H    0.124121
    12  Mo  -0.569928
    13  S   -0.044373
    14  H    0.082118
    15  S    0.028521
    16  H    0.029265
    17  H    0.063461
 Sum of Mulliken charges =  -0.00000

 Dipole moment (field-independent basis, Debye):
    X=              0.1826    Y=             -4.1884    Z=              0.0972  Tot=              4.1935
 Quadrupole moment (field-independent basis, Debye-Ang):
   XX=           -180.3022   YY=           -202.0478   ZZ=           -174.8050
   XY=             -1.5155   XZ=              0.9938   YZ=            -40.8894

  Exact polarizability:     293.073      39.200     330.489       5.648     -47.915     284.481
 Approx polarizability:     807.797     145.802     966.048     -26.574    -152.820     757.744

 ******    1 imaginary frequencies (negative Signs) ******

                      1                      2                      3
                      A                      A                      A
 Frequencies --  -1064.7381                39.3165                57.1194
 Red. masses --      1.0365                 6.0226                17.9740
 Frc consts  --      0.6923                 0.0055                 0.0346
 IR Inten    --    183.3377                 0.6213                 0.3241

                      4                      5                      6
                      A                      A                      A
 Frequencies --     73.0861                74.4681                95.0047
 Red. masses --      9.5713                13.4753                18.3836
 Frc consts  --      0.0301                 0.0440                 0.0978
 IR Inten    --      0.1405                 0.0337                 0.7549

                      7                      8                      9
                      A                      A                      A
 Frequencies --    107.2904               116.8458               127.0150
 Red. masses --      8.4591                16.4856                23.7321
 Frc consts  --      0.0574                 0.1326                 0.2256
 IR Inten    --      2.5423                 1.3162                 0.6814

                     10                     11                     12
                      A                      A                      A
 Frequencies --    144.8672               152.9489               156.9514
 Red. masses --     19.0935                18.0191                15.8760
 Frc consts  --      0.2361                 0.2484                 0.2304
 IR Inten    --      2.3695                 1.5408                 1.2722

                     13                     14                     15
                      A                      A                      A
 Frequencies --    169.4088               179.0883               200.0609
 Red. masses --      8.2691                15.6974                 3.5988
 Frc consts  --      0.1398                 0.2966                 0.0849
 IR Inten    --      7.3442                 2.0919                10.6404

                     16                     17                     18
                      A                      A                      A
 Frequencies --    206.3105               226.0953               249.4901
 Red. masses --      4.9796                 2.6893                 1.7793
 Frc consts  --      0.1249                 0.0810                 0.0653
 IR Inten    --      6.4097                 2.3479                 0.9574

                     19                     20                     21
                      A                      A                      A
 Frequencies --    283.2764               286.3485               299.2321
 Red. masses --      9.1233                 3.9322                 7.7533
 Frc consts  --      0.4313                 0.1900                 0.4090
 IR Inten    --     25.3971                 2.8915                 2.3894

                     22                     23                     24
                      A                      A                      A
 Frequencies --    317.6745               329.3709               347.9406
 Red. masses --      1.3176                29.0674                20.6605
 Frc consts  --      0.0783                 1.8579                 1.4737
 IR Inten    --      4.9705                 1.2023                10.6979

                     25                     26                     27
                      A                      A                      A
 Frequencies --    361.3127               368.1529               370.9880
 Red. masses --     26.4791                19.9123                24.7477
 Frc consts  --      2.0367                 1.5901                 2.0068
 IR Inten    --     51.3390                57.1909                38.7695

                     28                     29                     30
                      A                      A                      A
 Frequencies --    421.4763               441.9079               453.5585
 Red. masses --     18.1894                15.5728                 1.3605
 Frc consts  --      1.9038                 1.7918                 0.1649
 IR Inten    --     22.0667                 5.0425                14.0193

                     31                     32                     33
                      A                      A                      A
 Frequencies --    459.3187               468.7462               559.0286
 Red. masses --      5.4751                 7.6418                 1.1132
 Frc consts  --      0.6806                 0.9893                 0.2050
 IR Inten    --      5.3784                38.3044                10.0030

                     34                     35                     36
                      A                      A                      A
 Frequencies --    601.4926               617.7971               717.5999
 Red. masses --      1.0710                 1.0648                 1.0537
 Frc consts  --      0.2283                 0.2394                 0.3197
 IR Inten    --      4.9525                23.6913                 8.7364

                     37                     38                     39
                      A                      A                      A
 Frequencies --    788.4154               793.2961              1052.1392
 Red. masses --      1.0369                 1.0324                 1.0398
 Frc consts  --      0.3797                 0.3828                 0.6782
 IR Inten    --      7.6249                 6.5857                16.2334

                     40                     41                     42
                      A                      A                      A
 Frequencies --   1313.2515              1690.6471              2624.5028
 Red. masses --      1.0314                 1.0155                 1.0379
 Frc consts  --      1.0480                 1.7101                 4.2122
 IR Inten    --      1.6664                46.6856                11.1847

                     43                     44                     45
                      A                      A                      A
 Frequencies --   2673.9594              2674.6474              2676.9954
 Red. masses --      1.0383                 1.0386                 1.0384
 Frc consts  --      4.3739                 4.3774                 4.3844
 IR Inten    --      2.8685                 0.7641                 3.0159

 - Thermochemistry -
 -------------------
 Temperature   298.150 Kelvin.  Pressure   1.00000 Atm.
 Atom     1 has atomic number 42 and mass  97.90550

 Molecular mass:   555.54002 amu.
 Principal axes and moments of inertia in atomic units:
                           1         2         3
     Eigenvalues --  6172.719387776.75404**********
           X            0.49436   0.66021  -0.56544
           Y            0.76477  -0.02112   0.64396
           Z           -0.41321   0.75078   0.51535
 This molecule is an asymmetric top.
 Rotational symmetry number  1.
 Warning -- assumption of classical behavior for rotation
           may cause significant error
 Rotational temperatures (Kelvin)      0.01403     0.01114     0.00860
 Rotational constants (GHZ):           0.29237     0.23207     0.17925
    1 imaginary frequencies ignored.
 Zero-point vibrational energy     157718.3 (Joules/Mol)
                                   37.69558 (Kcal/Mol)
 Warning -- explicit consideration of  34 degrees of freedom as
           vibrations may cause significant error
 Vibrational temperatures:     56.57    82.18   105.15   107.14   136.69
          (Kelvin)            154.37   168.12   182.75   208.43   220.06
                              225.82   243.74   257.67   287.84   296.83
                              325.30   358.96   407.57   411.99   430.53
                              457.06   473.89   500.61   519.85   529.69
                              533.77   606.41   635.81   652.57   660.86
                              674.42   804.32   865.41   888.87  1032.47
                             1134.35  1141.38  1513.79  1889.48  2432.46
                             3776.07  3847.23  3848.22  3851.60

 Zero-point correction=                           0.060072 (Hartree/Particle)
 Thermal correction to Energy=                    0.079858
 Thermal correction to Enthalpy=                  0.080802
 Thermal correction to Gibbs Free Energy=         0.010194
 Sum of electronic and zero-point Energies=          -3391.932140
 Sum of electronic and thermal Energies=             -3391.912355
 Sum of electronic and thermal Enthalpies=           -3391.911410
 Sum of electronic and thermal Free Energies=        -3391.982018

                     E (Thermal)             CV                S
                      KCal/Mol        Cal/Mol-Kelvin    Cal/Mol-Kelvin
 Total                   50.111             65.423            148.607
 Electronic               0.000              0.000              0.000
 Translational            0.889              2.981             44.829
 Rotational               0.889              2.981             34.535
 Vibrational             48.334             59.461             69.243
 Vibration     1          0.594              1.981              5.293
 Vibration     2          0.596              1.975              4.554
 Vibration     3          0.599              1.967              4.068
 Vibration     4          0.599              1.966              4.032
 Vibration     5          0.603              1.953              3.554
 Vibration     6          0.606              1.943              3.317
 Vibration     7          0.608              1.935              3.152
 Vibration     8          0.611              1.926              2.991
 Vibration     9          0.616              1.908              2.739
 Vibration    10          0.619              1.899              2.635
 Vibration    11          0.621              1.895              2.586
 Vibration    12          0.625              1.880              2.442
 Vibration    13          0.629              1.868              2.338
 Vibration    14          0.638              1.840              2.133
 Vibration    15          0.641              1.831              2.076
 Vibration    16          0.650              1.801              1.910
 Vibration    17          0.662              1.764              1.734
 Vibration    18          0.682              1.705              1.514
 Vibration    19          0.684              1.699              1.495
 Vibration    20          0.692              1.675              1.421
 Vibration    21          0.704              1.640              1.322
 Vibration    22          0.712              1.617              1.263
 Vibration    23          0.726              1.579              1.175
 Vibration    24          0.735              1.552              1.116
 Vibration    25          0.741              1.538              1.087
 Vibration    26          0.743              1.532              1.076
 Vibration    27          0.784              1.424              0.887
 Vibration    28          0.802              1.379              0.821
 Vibration    29          0.812              1.353              0.785
 Vibration    30          0.817              1.340              0.768
 Vibration    31          0.826              1.319              0.741
 Vibration    32          0.915              1.120              0.526
 Vibration    33          0.960              1.029              0.447
 Vibration    34          0.978              0.994              0.420

                           ! Non-Optimized Parameters !
 Normal termination of Gaussian 16 at Sat Jul  8 04:22:25 2023.
