 Gaussian 16, Revision C.01,
 Gaussian 16:  ES64L-G16RevC.01  3-Jul-2019

 ---------------------------------------
 # opt freq b3lyp/gen nosymm pseudo=read
 ---------------------------------------

 -------------------
 Title Card Required
 -------------------
 Symbolic Z-matrix:
 Charge =  0 Multiplicity = 1

 SCF Done:  E(RB3LYP) =  -1206.33113335     A.U. after   17 cycles
 SCF Done:  E(RB3LYP) =  -1206.34059292     A.U. after   14 cycles
 SCF Done:  E(RB3LYP) =  -1206.35089647     A.U. after   15 cycles
 SCF Done:  E(RB3LYP) =  -1206.35362507     A.U. after   15 cycles
 SCF Done:  E(RB3LYP) =  -1206.35475879     A.U. after   13 cycles
 SCF Done:  E(RB3LYP) =  -1206.35546390     A.U. after   13 cycles
 SCF Done:  E(RB3LYP) =  -1206.35583804     A.U. after   13 cycles
 SCF Done:  E(RB3LYP) =  -1206.35594198     A.U. after   13 cycles
 SCF Done:  E(RB3LYP) =  -1206.35612799     A.U. after   12 cycles
 SCF Done:  E(RB3LYP) =  -1206.35644141     A.U. after   13 cycles
 SCF Done:  E(RB3LYP) =  -1206.36205212     A.U. after   12 cycles
 SCF Done:  E(RB3LYP) =  -1206.36206395     A.U. after   12 cycles
 SCF Done:  E(RB3LYP) =  -1206.36207304     A.U. after   11 cycles
 SCF Done:  E(RB3LYP) =  -1206.36207770     A.U. after   12 cycles
 SCF Done:  E(RB3LYP) =  -1206.36207827     A.U. after   11 cycles
 SCF Done:  E(RB3LYP) =  -1206.36207886     A.U. after   11 cycles
 SCF Done:  E(RB3LYP) =  -1206.36207907     A.U. after   10 cycles
 SCF Done:  E(RB3LYP) =  -1206.36207910     A.U. after    7 cycles
 SCF Done:  E(RB3LYP) =  -1206.36207912     A.U. after    7 cycles
 Optimization completed.
    -- Stationary point found.
 Normal termination of Gaussian 16 at Thu Mar 10 17:40:16 2022.

 ------------------------------------------------------------------
 #N Geom=AllCheck Guess=TCheck SCRF=Check GenChk RB3LYP/ChkBas Freq
 ------------------------------------------------------------------

 Structure from the checkpoint file:  "/localscratch/chegho/Gau-208839.chk"
 -------------------
 Title Card Required
 -------------------
 Charge =  0 Multiplicity = 1

                          Input orientation:
 ---------------------------------------------------------------------
 Center     Atomic      Atomic             Coordinates (Angstroms)
 Number     Number       Type             X           Y           Z
 ---------------------------------------------------------------------
      1         42           0        1.745743    0.114045   -0.731689
      2          6           0        3.219687   -0.948239   -1.499322
      3          6           0        1.060769   -1.508460    0.055344
      4          6           0        0.676893   -0.242724   -2.346634
      5          8           0        0.032123   -0.442722   -3.296993
      6          8           0        4.083326   -1.583565   -1.955266
      7          8           0        0.653982   -2.485823    0.552743
      8         16           0       -0.192856    1.606676    0.341761
      9          1           0       -0.345308    2.728801   -0.398038
     10          1           0       -1.309639    1.041781   -0.159686
     11         16           0        3.302978    0.929936    1.244930
     12          1           0        2.581963    1.005930    2.385985
     13          1           0        3.962510   -0.178093    1.636837
 ---------------------------------------------------------------------

 SCF Done:  E(RB3LYP) =  -1206.36207912     A.U. after    1 cycles

 Alpha  occ. eigenvalues --  -88.92512 -88.92273 -19.18643 -19.18627 -19.17884
 Alpha  occ. eigenvalues --  -10.26415 -10.26303 -10.26121  -8.00153  -7.99929
 Alpha  occ. eigenvalues --   -5.96499  -5.96275  -5.96215  -5.95996  -5.95635
 Alpha  occ. eigenvalues --   -5.95411  -2.43100  -1.46410  -1.45749  -1.45629
 Alpha  occ. eigenvalues --   -1.08698  -1.08643  -1.07879  -0.79673  -0.79268
 Alpha  occ. eigenvalues --   -0.53684  -0.52453  -0.52133  -0.49336  -0.49060
 Alpha  occ. eigenvalues --   -0.44067  -0.42841  -0.42304  -0.42028  -0.41741
 Alpha  occ. eigenvalues --   -0.41113  -0.40828  -0.40586  -0.40176  -0.39477
 Alpha  occ. eigenvalues --   -0.39286  -0.32403  -0.31942  -0.20636  -0.20003
 Alpha  occ. eigenvalues --   -0.19794
 Alpha virt. eigenvalues --   -0.07086  -0.03544  -0.02779  -0.01865  -0.00335
 Alpha virt. eigenvalues --    0.01338   0.02861   0.03248   0.03910   0.04803
 Alpha virt. eigenvalues --    0.05183   0.05654   0.06229   0.07273   0.10297

 Mulliken charges:
               1
     1  Mo  -0.156171
     2  C    0.208320
     3  C    0.249568
     4  C    0.216666
     5  O   -0.295293
     6  O   -0.291746
     7  O   -0.310365
     8  S   -0.059451
     9  H    0.109231
    10  H    0.139670
    11  S   -0.060271
    12  H    0.113176
    13  H    0.136667
 Sum of Mulliken charges =  -0.00000

 Dipole moment (field-independent basis, Debye):
    X=             -0.5911    Y=              5.5272    Z=              3.9108  Tot=              6.7966
 Quadrupole moment (field-independent basis, Debye-Ang):
   XX=            -81.2386   YY=            -83.4004   ZZ=            -88.0610
   XY=              4.3040   XZ=             10.7229   YZ=             -4.5345

  Exact polarizability:     130.363     -12.819     106.800       6.288       9.312     127.013
 Approx polarizability:     253.081     -18.162     213.704       5.858      -0.258     250.953

                      1                      2                      3
                      A                      A                      A
 Frequencies --     48.8029                72.0376                78.1605
 Red. masses --      4.8171                 2.6887                12.4230
 Frc consts  --      0.0068                 0.0082                 0.0447
 IR Inten    --      1.1581                 8.5599                 0.7748

                      4                      5                      6
                      A                      A                      A
 Frequencies --     81.2865                86.2911                91.2837
 Red. masses --      5.0705                 4.6732                 4.7972
 Frc consts  --      0.0197                 0.0205                 0.0236
 IR Inten    --      1.5817                 3.9350                 1.2258

                      7                      8                      9
                      A                      A                      A
 Frequencies --     93.9469               103.0888               151.1487
 Red. masses --      5.0178                15.7618                 1.0809
 Frc consts  --      0.0261                 0.0987                 0.0145
 IR Inten    --      3.7670                 0.3173                12.3116

                     10                     11                     12
                      A                      A                      A
 Frequencies --    180.0511               187.3220               380.5503
 Red. masses --     23.5314                 9.9859                 1.3498
 Frc consts  --      0.4495                 0.2064                 0.1152
 IR Inten    --      1.4349                 6.9031                 2.3904

                     13                     14                     15
                      A                      A                      A
 Frequencies --    408.4187               425.0087               438.6211
 Red. masses --      2.8676                 1.6765                 3.4893
 Frc consts  --      0.2818                 0.1784                 0.3955
 IR Inten    --      3.1380                 1.0730                 3.0177

                     16                     17                     18
                      A                      A                      A
 Frequencies --    454.3149               466.9308               472.8389
 Red. masses --      3.8468                 2.2053                 6.3041
 Frc consts  --      0.4678                 0.2833                 0.8304
 IR Inten    --      4.1957                 6.4170                 7.8378

                     19                     20                     21
                      A                      A                      A
 Frequencies --    499.8861               523.6828               539.2126
 Red. masses --      6.5827                 1.7095                 1.9964
 Frc consts  --      0.9692                 0.2762                 0.3420
 IR Inten    --      2.6266                 3.6450                11.3443

                     22                     23                     24
                      A                      A                      A
 Frequencies --    622.7584               627.8346               659.9643
 Red. masses --      9.9558                 7.7379                11.2398
 Frc consts  --      2.2749                 1.7971                 2.8844
 IR Inten    --      1.5213                16.9880                25.4074

                     25                     26                     27
                      A                      A                      A
 Frequencies --   1217.8123              1227.6360              1963.7491
 Red. masses --      1.0388                 1.0391                13.3491
 Frc consts  --      0.9077                 0.9227                30.3302
 IR Inten    --     25.0982                18.2645              1096.1904

                     28                     29                     30
                      A                      A                      A
 Frequencies --   1982.3539              2057.9760              2643.1229
 Red. masses --     13.3625                13.2285                 1.0367
 Frc consts  --     30.9387                33.0096                 4.2670
 IR Inten    --   1085.6351               661.1186                19.7329

                     31                     32                     33
                      A                      A                      A
 Frequencies --   2645.7882              2686.1640              2689.2359
 Red. masses --      1.0369                 1.0387                 1.0386
 Frc consts  --      4.2765                 4.4156                 4.4255
 IR Inten    --     26.3464                 5.1747                 3.2648

 - Thermochemistry -
 -------------------
 Temperature   298.150 Kelvin.  Pressure   1.00000 Atm.
 Atom     1 has atomic number 42 and mass  97.90550

 Molecular mass:   249.86569 amu.
 Principal axes and moments of inertia in atomic units:
                           1         2         3
     Eigenvalues --  2238.768882304.064113215.35548
           X           -0.23240   0.91326   0.33458
           Y            0.64149  -0.11465   0.75852
           Z            0.73108   0.39091  -0.55920
 This molecule is an asymmetric top.
 Rotational symmetry number  1.
 Warning -- assumption of classical behavior for rotation
           may cause significant error
 Rotational temperatures (Kelvin)      0.03869     0.03759     0.02694
 Rotational constants (GHZ):           0.80613     0.78329     0.56129
 Zero-point vibrational energy     160343.1 (Joules/Mol)
                                   38.32293 (Kcal/Mol)
 Warning -- explicit consideration of  21 degrees of freedom as
           vibrations may cause significant error
 Vibrational temperatures:     70.22   103.65   112.46   116.95   124.15
          (Kelvin)            131.34   135.17   148.32   217.47   259.05
                              269.51   547.53   587.62   611.49   631.08
                              653.66   671.81   680.31   719.22   753.46
                              775.81   896.01   903.31   949.54  1752.16
                             1766.29  2825.40  2852.17  2960.97  3802.86
                             3806.70  3864.79  3869.21

 Zero-point correction=                           0.061071 (Hartree/Particle)
 Thermal correction to Energy=                    0.074910
 Thermal correction to Enthalpy=                  0.075854
 Thermal correction to Gibbs Free Energy=         0.018368
 Sum of electronic and zero-point Energies=          -1206.301008
 Sum of electronic and thermal Energies=             -1206.287169
 Sum of electronic and thermal Enthalpies=           -1206.286225
 Sum of electronic and thermal Free Energies=        -1206.343711

                     E (Thermal)             CV                S
                      KCal/Mol        Cal/Mol-Kelvin    Cal/Mol-Kelvin
 Total                   47.007             43.920            120.990
 Electronic               0.000              0.000              0.000
 Translational            0.889              2.981             42.448
 Rotational               0.889              2.981             31.184
 Vibrational             45.229             37.958             47.358
 Vibration     1          0.595              1.978              4.865
 Vibration     2          0.598              1.967              4.097
 Vibration     3          0.599              1.964              3.937
 Vibration     4          0.600              1.962              3.860
 Vibration     5          0.601              1.959              3.742
 Vibration     6          0.602              1.955              3.632
 Vibration     7          0.603              1.954              3.576
 Vibration     8          0.605              1.947              3.395
 Vibration     9          0.619              1.901              2.658
 Vibration    10          0.629              1.867              2.328
 Vibration    11          0.632              1.857              2.254
 Vibration    12          0.750              1.512              1.037
 Vibration    13          0.773              1.452              0.932
 Vibration    14          0.787              1.416              0.875
 Vibration    15          0.799              1.386              0.831
 Vibration    16          0.813              1.351              0.783
 Vibration    17          0.824              1.323              0.746
 Vibration    18          0.830              1.310              0.730
 Vibration    19          0.855              1.250              0.658
 Vibration    20          0.879              1.198              0.601
 Vibration    21          0.894              1.163              0.567

 Optimization completed.
    -- Stationary point found.
 Normal termination of Gaussian 16 at Thu Mar 10 17:40:57 2022.
