 Gaussian 16, Revision C.01,
 Gaussian 16:  ES64L-G16RevC.01  3-Jul-2019

 -----------------------------------------------------------
 # opt=(calcfc,ts,noeigen) freq b3lyp/gen nosymm pseudo=read
 -----------------------------------------------------------

 -------------------
 Title Card Required
 -------------------
 Symbolic Z-matrix:
 Charge =  0 Multiplicity = 1

 SCF Done:  E(RB3LYP) =  -1206.33353906     A.U. after   17 cycles
 SCF Done:  E(RB3LYP) =  -1206.34196340     A.U. after   14 cycles
 SCF Done:  E(RB3LYP) =  -1206.34270466     A.U. after   13 cycles
 SCF Done:  E(RB3LYP) =  -1206.34261227     A.U. after   14 cycles
 SCF Done:  E(RB3LYP) =  -1206.34287874     A.U. after   13 cycles
 SCF Done:  E(RB3LYP) =  -1206.34289489     A.U. after   12 cycles
 SCF Done:  E(RB3LYP) =  -1206.34289757     A.U. after   11 cycles
 SCF Done:  E(RB3LYP) =  -1206.34289758     A.U. after   10 cycles
 SCF Done:  E(RB3LYP) =  -1206.34289759     A.U. after    8 cycles
 Optimization completed.
    -- Stationary point found.
 Normal termination of Gaussian 16 at Thu Jun 23 18:41:08 2022.

 ------------------------------------------------------------------
 #N Geom=AllCheck Guess=TCheck SCRF=Check GenChk RB3LYP/ChkBas Freq
 ------------------------------------------------------------------

 Structure from the checkpoint file:  "/scratch/5551.lucifer/Gau-80643.chk"
 -------------------
 Title Card Required
 -------------------
 Charge =  0 Multiplicity = 1

                          Input orientation:
 ---------------------------------------------------------------------
 Center     Atomic      Atomic             Coordinates (Angstroms)
 Number     Number       Type             X           Y           Z
 ---------------------------------------------------------------------
      1         42           0        1.566807    0.227733   -0.774969
      2          6           0        3.133267   -0.764446   -1.614676
      3          6           0        1.042153   -1.548076   -0.142866
      4          6           0        0.718839    0.041084   -2.566690
      5          8           0        0.239163   -0.061708   -3.614683
      6          8           0        3.992489   -1.334803   -2.135449
      7          8           0        0.719310   -2.574314    0.295059
      8         16           0       -0.059863    2.036935   -0.140499
      9          1           0       -0.149601    0.190158   -0.457218
     10          1           0        0.085028    2.060566    1.204090
     11         16           0        2.980088    0.771211    1.395368
     12          1           0        2.158520    1.371498    2.285294
     13          1           0        3.045973   -0.378294    2.097209
 ---------------------------------------------------------------------

 SCF Done:  E(RB3LYP) =  -1206.34289759     A.U. after    1 cycles

 Alpha  occ. eigenvalues --  -88.93477 -88.86929 -19.23198 -19.21661 -19.21580
 Alpha  occ. eigenvalues --  -10.30684 -10.30069 -10.29515  -8.01142  -7.94518
 Alpha  occ. eigenvalues --   -5.97483  -5.97204  -5.96624  -5.90853  -5.90524
 Alpha  occ. eigenvalues --   -5.90061  -2.47181  -1.50323  -1.50079  -1.49371
 Alpha  occ. eigenvalues --   -1.13391  -1.11907  -1.11815  -0.80605  -0.72243
 Alpha  occ. eigenvalues --   -0.57378  -0.55651  -0.55289  -0.50444  -0.47197
 Alpha  occ. eigenvalues --   -0.46325  -0.46077  -0.45229  -0.44780  -0.44562
 Alpha  occ. eigenvalues --   -0.44082  -0.43673  -0.43200  -0.42194  -0.41067
 Alpha  occ. eigenvalues --   -0.35935  -0.33570  -0.29277  -0.23792  -0.23060
 Alpha  occ. eigenvalues --   -0.22780
 Alpha virt. eigenvalues --   -0.09469  -0.05253  -0.03337  -0.02581  -0.00764
 Alpha virt. eigenvalues --   -0.00525   0.00363   0.01333   0.01812   0.02650
 Alpha virt. eigenvalues --    0.03501   0.03846   0.04648   0.05349   0.08317

 Mulliken charges:
               1
     1  Mo  -0.243488
     2  C    0.200751
     3  C    0.252209
     4  C    0.237363
     5  O   -0.258693
     6  O   -0.244855
     7  O   -0.277257
     8  S   -0.086216
     9  H    0.132708
    10  H    0.051045
    11  S   -0.004316
    12  H    0.111015
    13  H    0.129732
 Sum of Mulliken charges =  -0.00000

 Dipole moment (field-independent basis, Debye):
    X=              2.1269    Y=              1.0492    Z=              4.3504  Tot=              4.9548
 Quadrupole moment (field-independent basis, Debye-Ang):
   XX=            -81.9664   YY=            -88.9277   ZZ=            -81.9015
   XY=              3.4878   XZ=              7.0840   YZ=              1.5805

  Exact polarizability:     123.878     -26.313     121.573      -1.215      11.073     132.149
 Approx polarizability:     266.742     -67.408     247.519     -22.641      11.282     255.292

 ******    1 imaginary frequencies (negative Signs) ******

                      1                      2                      3
                      A                      A                      A
 Frequencies --   -684.5815                55.8698                76.5440
 Red. masses --      1.0934                10.0019                11.5735
 Frc consts  --      0.3019                 0.0184                 0.0400
 IR Inten    --    978.0310                 1.4935                 1.0014

                      4                      5                      6
                      A                      A                      A
 Frequencies --     80.1328                90.3823               100.6820
 Red. masses --      9.9427                15.1428                12.4542
 Frc consts  --      0.0376                 0.0729                 0.0744
 IR Inten    --      0.3237                 0.6846                 0.2750

                      7                      8                      9
                      A                      A                      A
 Frequencies --    111.9980               119.8042               132.0708
 Red. masses --      5.1387                 1.2462                11.2166
 Frc consts  --      0.0380                 0.0105                 0.1153
 IR Inten    --     12.3803                10.2498                 5.1434

                     10                     11                     12
                      A                      A                      A
 Frequencies --    190.2063               256.8798               311.2961
 Red. masses --     19.7366                 2.1565                 2.3743
 Frc consts  --      0.4207                 0.0838                 0.1356
 IR Inten    --      1.0981                12.2975                15.3314

                     13                     14                     15
                      A                      A                      A
 Frequencies --    401.3130               422.5672               431.7393
 Red. masses --      2.5324                 1.4231                 4.3054
 Frc consts  --      0.2403                 0.1497                 0.4728
 IR Inten    --      8.1761                11.4083                 3.0450

                     16                     17                     18
                      A                      A                      A
 Frequencies --    437.2159               444.5461               463.7888
 Red. masses --      6.1823                 5.9628                 3.9188
 Frc consts  --      0.6963                 0.6943                 0.4966
 IR Inten    --     15.1129                 1.4998                10.3199

                     19                     20                     21
                      A                      A                      A
 Frequencies --    494.0072               499.2683               537.4604
 Red. masses --      3.6448                 2.8246                 1.5233
 Frc consts  --      0.5241                 0.4148                 0.2592
 IR Inten    --     12.8093                44.3363                 8.4790

                     22                     23                     24
                      A                      A                      A
 Frequencies --    590.5266               609.0741               643.6474
 Red. masses --      7.8707                 3.2728                 7.3123
 Frc consts  --      1.6171                 0.7153                 1.7848
 IR Inten    --      8.9966                 6.3885                52.6881

                     25                     26                     27
                      A                      A                      A
 Frequencies --    693.4167              1217.6492              1716.3716
 Red. masses --      1.1895                 1.0396                 1.0245
 Frc consts  --      0.3370                 0.9082                 1.7782
 IR Inten    --     15.2138                 9.8028                94.5131

                     28                     29                     30
                      A                      A                      A
 Frequencies --   2021.2280              2041.3995              2105.4551
 Red. masses --     13.3004                13.2513                12.4604
 Frc consts  --     32.0145                32.5360                32.5443
 IR Inten    --   1085.6416               782.8534               740.5436

                     31                     32                     33
                      A                      A                      A
 Frequencies --   2636.2138              2649.8514              2688.4622
 Red. masses --      1.0383                 1.0372                 1.0390
 Frc consts  --      4.2515                 4.2909                 4.4246
 IR Inten    --     42.5161                 5.6336                 1.4157

 - Thermochemistry -
 -------------------
 Temperature   298.150 Kelvin.  Pressure   1.00000 Atm.
 Atom     1 has atomic number 42 and mass  97.90550

 Molecular mass:   249.86569 amu.
 Principal axes and moments of inertia in atomic units:
                           1         2         3
     Eigenvalues --  2181.024622335.344613154.72121
           X            0.00173   0.78310   0.62189
           Y            0.52903  -0.52845   0.66398
           Z            0.84860   0.32785  -0.41520
 This molecule is an asymmetric top.
 Rotational symmetry number  1.
 Warning -- assumption of classical behavior for rotation
           may cause significant error
 Rotational temperatures (Kelvin)      0.03971     0.03709     0.02746
 Rotational constants (GHZ):           0.82747     0.77279     0.57208
    1 imaginary frequencies ignored.
 Zero-point vibrational energy     151154.6 (Joules/Mol)
                                   36.12680 (Kcal/Mol)
 Warning -- explicit consideration of  22 degrees of freedom as
           vibrations may cause significant error
 Vibrational temperatures:     80.38   110.13   115.29   130.04   144.86
          (Kelvin)            161.14   172.37   190.02   273.66   369.59
                              447.89   577.40   607.98   621.18   629.06
                              639.60   667.29   710.77   718.34   773.29
                              849.64   876.32   926.07   997.67  1751.93
                             2469.48  2908.10  2937.12  3029.28  3792.92
                             3812.55  3868.10

 Zero-point correction=                           0.057572 (Hartree/Particle)
 Thermal correction to Energy=                    0.070726
 Thermal correction to Enthalpy=                  0.071670
 Thermal correction to Gibbs Free Energy=         0.016404
 Sum of electronic and zero-point Energies=          -1206.285326
 Sum of electronic and thermal Energies=             -1206.272172
 Sum of electronic and thermal Enthalpies=           -1206.271228
 Sum of electronic and thermal Free Energies=        -1206.326493

                     E (Thermal)             CV                S
                      KCal/Mol        Cal/Mol-Kelvin    Cal/Mol-Kelvin
 Total                   44.381             42.990            116.316
 Electronic               0.000              0.000              0.000
 Translational            0.889              2.981             42.448
 Rotational               0.889              2.981             31.153
 Vibrational             42.604             37.029             42.716
 Vibration     1          0.596              1.975              4.598
 Vibration     2          0.599              1.965              3.978
 Vibration     3          0.600              1.963              3.888
 Vibration     4          0.602              1.956              3.652
 Vibration     5          0.604              1.949              3.441
 Vibration     6          0.607              1.940              3.234
 Vibration     7          0.609              1.933              3.104
 Vibration     8          0.612              1.921              2.916
 Vibration     9          0.634              1.853              2.226
 Vibration    10          0.666              1.751              1.683
 Vibration    11          0.700              1.652              1.355
 Vibration    12          0.767              1.467              0.958
 Vibration    13          0.785              1.421              0.883
 Vibration    14          0.793              1.401              0.853
 Vibration    15          0.798              1.389              0.835
 Vibration    16          0.804              1.373              0.812
 Vibration    17          0.821              1.330              0.755
 Vibration    18          0.850              1.263              0.673
 Vibration    19          0.855              1.252              0.660
 Vibration    20          0.892              1.167              0.571
 Vibration    21          0.948              1.052              0.466
 Vibration    22          0.968              1.013              0.434

                           ! Non-Optimized Parameters !
 Normal termination of Gaussian 16 at Thu Jun 23 18:42:09 2022.
