 Gaussian 16, Revision C.01,
 Gaussian 16:  ES64L-G16RevC.01  3-Jul-2019

 ---------------------------------------
 # opt freq b3lyp/gen nosymm pseudo=read
 ---------------------------------------

 -------------------
 Title Card Required
 -------------------
 Symbolic Z-matrix:
 Charge =  0 Multiplicity = 1

 SCF Done:  E(RB3LYP) =  -1206.35559131     A.U. after   17 cycles
 SCF Done:  E(RB3LYP) =  -1206.35905931     A.U. after   13 cycles
 SCF Done:  E(RB3LYP) =  -1206.35908169     A.U. after   11 cycles
 SCF Done:  E(RB3LYP) =  -1206.35910094     A.U. after   11 cycles
 SCF Done:  E(RB3LYP) =  -1206.35910693     A.U. after   10 cycles
 SCF Done:  E(RB3LYP) =  -1206.35911317     A.U. after   11 cycles
 SCF Done:  E(RB3LYP) =  -1206.35911601     A.U. after   11 cycles
 SCF Done:  E(RB3LYP) =  -1206.35911796     A.U. after   10 cycles
 SCF Done:  E(RB3LYP) =  -1206.35912159     A.U. after   11 cycles
 SCF Done:  E(RB3LYP) =  -1206.35912260     A.U. after    9 cycles
 SCF Done:  E(RB3LYP) =  -1206.35912354     A.U. after   10 cycles
 SCF Done:  E(RB3LYP) =  -1206.35912455     A.U. after   10 cycles
 SCF Done:  E(RB3LYP) =  -1206.35912558     A.U. after   10 cycles
 SCF Done:  E(RB3LYP) =  -1206.35912662     A.U. after   10 cycles
 SCF Done:  E(RB3LYP) =  -1206.35912756     A.U. after   10 cycles
 SCF Done:  E(RB3LYP) =  -1206.35912788     A.U. after    9 cycles
 SCF Done:  E(RB3LYP) =  -1206.35912813     A.U. after    9 cycles
 SCF Done:  E(RB3LYP) =  -1206.35912820     A.U. after    8 cycles
 Optimization completed.
    -- Stationary point found.
 Normal termination of Gaussian 16 at Sat Jun 18 15:30:36 2022.

 ------------------------------------------------------------------
 #N Geom=AllCheck Guess=TCheck SCRF=Check GenChk RB3LYP/ChkBas Freq
 ------------------------------------------------------------------

 Structure from the checkpoint file:  "/home/chesagar/scratch/Gau-181430.chk"
 -------------------
 Title Card Required
 -------------------
 Charge =  0 Multiplicity = 1

                          Input orientation:
 ---------------------------------------------------------------------
 Center     Atomic      Atomic             Coordinates (Angstroms)
 Number     Number       Type             X           Y           Z
 ---------------------------------------------------------------------
      1         42           0        1.315751    0.136048   -0.625245
      2          6           0        2.875865   -0.580941   -1.661269
      3          6           0        1.335838   -1.775130    0.013398
      4          6           0        0.489865    0.120363   -2.439754
      5          8           0        0.003157    0.116514   -3.484876
      6          8           0        3.773809   -0.935194   -2.297730
      7          8           0        1.302523   -2.843663    0.455334
      8         16           0        0.366855    2.373203   -0.422221
      9          1           0       -0.123364   -0.718785   -0.730411
     10          1           0        0.970307    2.858785    0.686900
     11         16           0        2.608599    0.734937    1.627327
     12          1           0        1.603944    0.981235    2.491964
     13          1           0        2.949024   -0.429830    2.216551
 ---------------------------------------------------------------------

 SCF Done:  E(RB3LYP) =  -1206.35912820     A.U. after    1 cycles

 Alpha  occ. eigenvalues --  -88.94286 -88.84075 -19.23591 -19.23521 -19.23098
 Alpha  occ. eigenvalues --  -10.31968 -10.31610 -10.31404  -8.01965  -7.91746
 Alpha  occ. eigenvalues --   -5.98296  -5.98005  -5.97470  -5.88094  -5.87532
 Alpha  occ. eigenvalues --   -5.87491  -2.49356  -1.52265  -1.51897  -1.51693
 Alpha  occ. eigenvalues --   -1.13951  -1.13769  -1.13500  -0.81473  -0.69554
 Alpha  occ. eigenvalues --   -0.58850  -0.57017  -0.56490  -0.51227  -0.48428
 Alpha  occ. eigenvalues --   -0.47589  -0.47340  -0.46684  -0.46211  -0.45956
 Alpha  occ. eigenvalues --   -0.45501  -0.44623  -0.43594  -0.43285  -0.38741
 Alpha  occ. eigenvalues --   -0.34881  -0.33334  -0.28806  -0.25700  -0.24446
 Alpha  occ. eigenvalues --   -0.23329
 Alpha virt. eigenvalues --   -0.09089  -0.06133  -0.03474  -0.02713  -0.01895
 Alpha virt. eigenvalues --   -0.01022  -0.00771   0.00124   0.00901   0.01617
 Alpha virt. eigenvalues --    0.03019   0.03456   0.04594   0.05658   0.08353

 Mulliken charges:
               1
     1  Mo   0.008821
     2  C    0.177678
     3  C    0.199644
     4  C    0.222778
     5  O   -0.240228
     6  O   -0.246461
     7  O   -0.253060
     8  S   -0.179898
     9  H    0.025002
    10  H    0.027241
    11  S   -0.004732
    12  H    0.138538
    13  H    0.124676
 Sum of Mulliken charges =  -0.00000

 Dipole moment (field-independent basis, Debye):
    X=              2.1203    Y=             -0.9691    Z=              4.5805  Tot=              5.1396
 Quadrupole moment (field-independent basis, Debye-Ang):
   XX=            -81.2400   YY=            -92.0187   ZZ=            -80.4212
   XY=              1.8967   XZ=              8.4043   YZ=              3.6508

  Exact polarizability:     107.576     -19.837     132.069       6.000      -0.462     125.607
 Approx polarizability:     216.846     -45.019     256.318       0.284     -16.626     234.000

                      1                      2                      3
                      A                      A                      A
 Frequencies --     28.4290                72.9034                86.3858
 Red. masses --     12.7597                 9.5952                13.1807
 Frc consts  --      0.0061                 0.0300                 0.0580
 IR Inten    --      2.3764                 0.9518                 0.4186

                      4                      5                      6
                      A                      A                      A
 Frequencies --     89.3014                97.7533               103.2793
 Red. masses --     15.1942                10.1363                 6.8638
 Frc consts  --      0.0714                 0.0571                 0.0431
 IR Inten    --      0.4085                 1.2789                 0.7266

                      7                      8                      9
                      A                      A                      A
 Frequencies --    110.9910               146.1492               191.4797
 Red. masses --      1.7781                 3.2279                10.4180
 Frc consts  --      0.0129                 0.0406                 0.2251
 IR Inten    --      7.4016                 3.6957                 0.4335

                     10                     11                     12
                      A                      A                      A
 Frequencies --    303.0992               316.5636               389.7017
 Red. masses --      1.7147                 3.2304                 3.9438
 Frc consts  --      0.0928                 0.1907                 0.3529
 IR Inten    --     11.5834                15.7121                 5.6666

                     13                     14                     15
                      A                      A                      A
 Frequencies --    397.0861               425.8054               427.8392
 Red. masses --      3.1203                 4.6961                 1.6896
 Frc consts  --      0.2899                 0.5017                 0.1822
 IR Inten    --     10.3867                 5.1547                18.4200

                     16                     17                     18
                      A                      A                      A
 Frequencies --    438.5669               459.2038               475.7387
 Red. masses --      4.2705                 3.4940                 7.4962
 Frc consts  --      0.4840                 0.4341                 0.9996
 IR Inten    --      3.2266                 2.8571                20.3204

                     19                     20                     21
                      A                      A                      A
 Frequencies --    507.3484               547.0386               569.1388
 Red. masses --      4.2057                 1.3039                 4.8754
 Frc consts  --      0.6378                 0.2299                 0.9305
 IR Inten    --      8.5290                 6.9765                 5.7357

                     22                     23                     24
                      A                      A                      A
 Frequencies --    582.8994               669.8341               687.2029
 Red. masses --      5.0624                 1.6440                 1.1301
 Frc consts  --      1.0134                 0.4346                 0.3144
 IR Inten    --     36.5840                10.5335                 6.2083

                     25                     26                     27
                      A                      A                      A
 Frequencies --    718.7851              1223.6280              1887.8011
 Red. masses --      1.6340                 1.0392                 1.0189
 Frc consts  --      0.4974                 0.9167                 2.1394
 IR Inten    --     56.3856                 5.0004                18.3406

                     28                     29                     30
                      A                      A                      A
 Frequencies --   2042.9870              2055.8780              2121.0771
 Red. masses --     13.2483                13.2954                13.2373
 Frc consts  --     32.5794                33.1089                35.0883
 IR Inten    --    777.7039               977.3522               537.2376

                     31                     32                     33
                      A                      A                      A
 Frequencies --   2635.1648              2682.5537              2698.2204
 Red. masses --      1.0387                 1.0351                 1.0403
 Frc consts  --      4.2495                 4.3888                 4.4625
 IR Inten    --     32.6714                 1.8432                 1.6182

 - Thermochemistry -
 -------------------
 Temperature   298.150 Kelvin.  Pressure   1.00000 Atm.
 Atom     1 has atomic number 42 and mass  97.90550

 Molecular mass:   249.86569 amu.
 Principal axes and moments of inertia in atomic units:
                           1         2         3
     Eigenvalues --  2149.899512250.806733231.70445
           X            0.37166  -0.36908   0.85185
           Y           -0.04992   0.90831   0.41532
           Z            0.92703   0.19688  -0.31915
 This molecule is an asymmetric top.
 Rotational symmetry number  1.
 Warning -- assumption of classical behavior for rotation
           may cause significant error
 Rotational temperatures (Kelvin)      0.04029     0.03848     0.02680
 Rotational constants (GHZ):           0.83945     0.80182     0.55845
 Zero-point vibrational energy     156650.0 (Joules/Mol)
                                   37.44025 (Kcal/Mol)
 Warning -- explicit consideration of  22 degrees of freedom as
           vibrations may cause significant error
 Vibrational temperatures:     40.90   104.89   124.29   128.48   140.65
          (Kelvin)            148.60   159.69   210.28   275.50   436.09
                              455.46   560.69   571.32   612.64   615.57
                              631.00   660.69   684.48   729.96   787.07
                              818.86   838.66   963.74   988.73  1034.17
                             1760.53  2716.12  2939.40  2957.95  3051.76
                             3791.41  3859.60  3882.14

 Zero-point correction=                           0.059665 (Hartree/Particle)
 Thermal correction to Energy=                    0.073000
 Thermal correction to Enthalpy=                  0.073944
 Thermal correction to Gibbs Free Energy=         0.017876
 Sum of electronic and zero-point Energies=          -1206.299463
 Sum of electronic and thermal Energies=             -1206.286128
 Sum of electronic and thermal Enthalpies=           -1206.285184
 Sum of electronic and thermal Free Energies=        -1206.341252

                     E (Thermal)             CV                S
                      KCal/Mol        Cal/Mol-Kelvin    Cal/Mol-Kelvin
 Total                   45.808             43.876            118.006
 Electronic               0.000              0.000              0.000
 Translational            0.889              2.981             42.448
 Rotational               0.889              2.981             31.126
 Vibrational             44.031             37.915             44.433
 Vibration     1          0.593              1.984              5.936
 Vibration     2          0.599              1.967              4.073
 Vibration     3          0.601              1.959              3.740
 Vibration     4          0.602              1.957              3.675
 Vibration     5          0.603              1.951              3.499
 Vibration     6          0.605              1.947              3.391
 Vibration     7          0.607              1.940              3.252
 Vibration     8          0.617              1.907              2.722
 Vibration     9          0.634              1.852              2.213
 Vibration    10          0.695              1.668              1.400
 Vibration    11          0.703              1.642              1.328
 Vibration    12          0.758              1.492              1.001
 Vibration    13          0.764              1.476              0.973
 Vibration    14          0.788              1.414              0.872
 Vibration    15          0.789              1.410              0.866
 Vibration    16          0.799              1.386              0.831
 Vibration    17          0.817              1.341              0.768
 Vibration    18          0.832              1.304              0.722
 Vibration    19          0.863              1.234              0.640
 Vibration    20          0.902              1.146              0.550
 Vibration    21          0.925              1.098              0.506
 Vibration    22          0.940              1.068              0.480

                           ! Non-Optimized Parameters !
 Normal termination of Gaussian 16 at Sat Jun 18 15:30:55 2022.
