 Gaussian 16, Revision C.01,
 Gaussian 16:  ES64L-G16RevC.01  3-Jul-2019

 -----------------------------------------------------------
 # opt=(calcfc,ts,noeigen) freq b3lyp/gen nosymm pseudo=read
 -----------------------------------------------------------

 -------------------
 Title Card Required
 -------------------
 Symbolic Z-matrix:
 Charge =  0 Multiplicity = 1

 SCF Done:  E(RB3LYP) =  -1206.32875186     A.U. after   17 cycles
 SCF Done:  E(RB3LYP) =  -1206.33236312     A.U. after   14 cycles
 SCF Done:  E(RB3LYP) =  -1206.33201246     A.U. after   14 cycles
 SCF Done:  E(RB3LYP) =  -1206.33259642     A.U. after   13 cycles
 SCF Done:  E(RB3LYP) =  -1206.33318504     A.U. after   14 cycles
 SCF Done:  E(RB3LYP) =  -1206.33291726     A.U. after   14 cycles
 SCF Done:  E(RB3LYP) =  -1206.33297404     A.U. after   13 cycles
 SCF Done:  E(RB3LYP) =  -1206.33299679     A.U. after   12 cycles
 SCF Done:  E(RB3LYP) =  -1206.33300015     A.U. after   11 cycles
 SCF Done:  E(RB3LYP) =  -1206.33300043     A.U. after   10 cycles
 Optimization completed.
    -- Stationary point found.

 1\1\GINC-NODE20-IB\FTS\RB3LYP\Gen\C3H4Mo1O3S2\CHESAGAR\18-Jun-2022\0\\
 # opt=(calcfc,ts,noeigen) freq b3lyp/gen nosymm pseudo=read\\Title Car
 d Required\\0,1\Mo,1.5213638459,0.0454458684,-0.4058979081\C,2.3613489
 407,-0.059892424,-2.2504177303\C,2.4372394064,-1.7206338524,-0.3272384
 714\C,-0.1643069321,-0.1489383446,-1.5466459854\O,-1.1004701068,-0.190
 2662057,-2.2130638261\O,2.8067546898,-0.1242028979,-3.3085556337\O,2.9
 969244497,-2.7236971803,-0.2320119654\S,3.4366638292,1.4532361416,-0.0
 448237096\H,0.376235253,-1.1271419182,0.4439113821\H,2.8692152513,2.39

 Normal termination of Gaussian 16 at Sat Jun 18 11:01:50 2022.

 ------------------------------------------------------------------
 #N Geom=AllCheck Guess=TCheck SCRF=Check GenChk RB3LYP/ChkBas Freq
 ------------------------------------------------------------------

 Structure from the checkpoint file:  "/home/chesagar/scratch/Gau-175944.chk"
 -------------------
 Title Card Required
 -------------------
 Charge =  0 Multiplicity = 1

                          Input orientation:
 ---------------------------------------------------------------------
 Center     Atomic      Atomic             Coordinates (Angstroms)
 Number     Number       Type             X           Y           Z
 ---------------------------------------------------------------------
      1         42           0        1.521364    0.045446   -0.405898
      2          6           0        2.361349   -0.059892   -2.250418
      3          6           0        2.437239   -1.720634   -0.327238
      4          6           0       -0.164307   -0.148938   -1.546646
      5          8           0       -1.100470   -0.190266   -2.213064
      6          8           0        2.806755   -0.124203   -3.308556
      7          8           0        2.996924   -2.723697   -0.232012
      8         16           0        3.436664    1.453236   -0.044824
      9          1           0        0.376235   -1.127142    0.443911
     10          1           0        2.869215    2.396700    0.738375
     11         16           0        0.293078    1.307653    1.552144
     12          1           0        0.276260   -0.413062    1.050343
     13          1           0        1.361868    1.342340    2.373849
 ---------------------------------------------------------------------

 SCF Done:  E(RB3LYP) =  -1206.33300043     A.U. after    1 cycles

 Alpha  occ. eigenvalues --  -88.87188 -88.86295 -19.26295 -19.25767 -19.25493
 Alpha  occ. eigenvalues --  -10.33890 -10.33858 -10.33620  -7.94966  -7.94006
 Alpha  occ. eigenvalues --   -5.91263  -5.90959  -5.90517  -5.90287  -5.89872
 Alpha  occ. eigenvalues --   -5.89722  -2.52331  -1.55397  -1.54701  -1.54380
 Alpha  occ. eigenvalues --   -1.16573  -1.16167  -1.15768  -0.73815  -0.71316
 Alpha  occ. eigenvalues --   -0.60898  -0.59112  -0.58371  -0.53967  -0.50133
 Alpha  occ. eigenvalues --   -0.49750  -0.48746  -0.48358  -0.47963  -0.47660
 Alpha  occ. eigenvalues --   -0.46920  -0.46408  -0.45341  -0.40841  -0.40603
 Alpha  occ. eigenvalues --   -0.32461  -0.31934  -0.27460  -0.26669  -0.26281
 Alpha  occ. eigenvalues --   -0.25623
 Alpha virt. eigenvalues --   -0.12315  -0.09183  -0.04892  -0.03757  -0.03504
 Alpha virt. eigenvalues --   -0.02166  -0.01726  -0.01365   0.00095   0.00518
 Alpha virt. eigenvalues --    0.02056   0.03134   0.03885   0.06119   0.07907

 Mulliken charges:
               1
     1  Mo  -0.096742
     2  C    0.215071
     3  C    0.235828
     4  C    0.216715
     5  O   -0.213100
     6  O   -0.219224
     7  O   -0.225871
     8  S   -0.138264
     9  H    0.042125
    10  H    0.072077
    11  S   -0.122337
    12  H    0.134109
    13  H    0.099614
 Sum of Mulliken charges =  -0.00000

 Dipole moment (field-independent basis, Debye):
    X=             -0.9124    Y=             -0.7990    Z=              0.4566  Tot=              1.2959
 Quadrupole moment (field-independent basis, Debye-Ang):
   XX=            -93.8974   YY=            -85.5061   ZZ=            -84.2079
   XY=              0.1774   XZ=              3.1834   YZ=              1.0928

  Exact polarizability:     137.773      -0.987     117.872      -4.401      18.950     130.004
 Approx polarizability:     292.489      -8.943     233.517      -3.480      29.313     254.382

 ******    1 imaginary frequencies (negative Signs) ******

                      1                      2                      3
                      A                      A                      A
 Frequencies --   -498.3361                51.8626                68.0864
 Red. masses --      1.1495                12.8167                13.5960
 Frc consts  --      0.1682                 0.0203                 0.0371
 IR Inten    --    788.6412                 2.6024                 0.4003

                      4                      5                      6
                      A                      A                      A
 Frequencies --     79.6881                99.1958               101.9463
 Red. masses --     15.2587                16.1023                16.5367
 Frc consts  --      0.0571                 0.0934                 0.1013
 IR Inten    --      0.8738                 0.9977                 0.1659

                      7                      8                      9
                      A                      A                      A
 Frequencies --    131.3386               165.5859               247.1238
 Red. masses --     12.9541                11.8541                11.2160
 Frc consts  --      0.1317                 0.1915                 0.4036
 IR Inten    --      7.7856                 0.4945                69.9130

                     10                     11                     12
                      A                      A                      A
 Frequencies --    306.1449               326.9021               364.4024
 Red. masses --      1.4858                 5.3480                 2.3509
 Frc consts  --      0.0820                 0.3367                 0.1839
 IR Inten    --     10.2715                23.5855                13.0242

                     13                     14                     15
                      A                      A                      A
 Frequencies --    383.6480               404.5561               411.7252
 Red. masses --      7.8120                 3.3504                 5.4116
 Frc consts  --      0.6774                 0.3231                 0.5405
 IR Inten    --     10.9438                 4.0055                16.4846

                     16                     17                     18
                      A                      A                      A
 Frequencies --    447.8805               458.5528               470.3789
 Red. masses --      9.3268                 2.5097                 9.2709
 Frc consts  --      1.1023                 0.3109                 1.2086
 IR Inten    --     35.8945                 4.0720                17.2409

                     19                     20                     21
                      A                      A                      A
 Frequencies --    535.2795               559.4700               582.9974
 Red. masses --      6.1085                 2.3754                 6.9227
 Frc consts  --      1.0312                 0.4381                 1.3863
 IR Inten    --     49.2227                 4.9965                32.3057

                     22                     23                     24
                      A                      A                      A
 Frequencies --    589.1744               678.2674               711.8367
 Red. masses --      1.9296                 1.1622                 1.1094
 Frc consts  --      0.3946                 0.3150                 0.3312
 IR Inten    --     46.4092                 8.5654                21.9283

                     25                     26                     27
                      A                      A                      A
 Frequencies --    946.3946              1046.5275              1561.7376
 Red. masses --      1.0218                 1.0388                 1.0107
 Frc consts  --      0.5392                 0.6703                 1.4524
 IR Inten    --      4.5119                31.2300               141.9058

                     28                     29                     30
                      A                      A                      A
 Frequencies --   1834.5648              2070.7756              2082.9835
 Red. masses --      1.0148                13.3199                13.3185
 Frc consts  --      2.0123                33.6525                34.0469
 IR Inten    --    386.3318              1202.9903               434.3280

                     31                     32                     33
                      A                      A                      A
 Frequencies --   2141.9904              2657.9845              2686.9087
 Red. masses --     12.8215                 1.0383                 1.0385
 Frc consts  --     34.6597                 4.3219                 4.4175
 IR Inten    --    582.0716                 6.8554                 2.0207

 - Thermochemistry -
 -------------------
 Temperature   298.150 Kelvin.  Pressure   1.00000 Atm.
 Atom     1 has atomic number 42 and mass  97.90550

 Molecular mass:   249.86569 amu.
 Principal axes and moments of inertia in atomic units:
                           1         2         3
     Eigenvalues --  2073.206232448.232503022.40803
           X           -0.45905   0.88498   0.07799
           Y            0.50921   0.19016   0.83937
           Z            0.72800   0.42502  -0.53793
 This molecule is an asymmetric top.
 Rotational symmetry number  1.
 Warning -- assumption of classical behavior for rotation
           may cause significant error
 Rotational temperatures (Kelvin)      0.04178     0.03538     0.02866
 Rotational constants (GHZ):           0.87051     0.73716     0.59712
    1 imaginary frequencies ignored.
 Zero-point vibrational energy     150764.8 (Joules/Mol)
                                   36.03366 (Kcal/Mol)
 Warning -- explicit consideration of  21 degrees of freedom as
           vibrations may cause significant error
 Vibrational temperatures:     74.62    97.96   114.65   142.72   146.68
          (Kelvin)            188.97   238.24   355.56   440.47   470.34
                              524.29   551.98   582.07   592.38   644.40
                              659.76   676.77   770.15   804.95   838.80
                              847.69   975.88  1024.17  1361.65  1505.72
                             2246.99  2639.53  2979.38  2996.95  3081.85
                             3824.25  3865.86

 Zero-point correction=                           0.057423 (Hartree/Particle)
 Thermal correction to Energy=                    0.069783
 Thermal correction to Enthalpy=                  0.070728
 Thermal correction to Gibbs Free Energy=         0.017370
 Sum of electronic and zero-point Energies=          -1206.275577
 Sum of electronic and thermal Energies=             -1206.263217
 Sum of electronic and thermal Enthalpies=           -1206.262273
 Sum of electronic and thermal Free Energies=        -1206.315630

                     E (Thermal)             CV                S
                      KCal/Mol        Cal/Mol-Kelvin    Cal/Mol-Kelvin
 Total                   43.790             41.575            112.299
 Electronic               0.000              0.000              0.000
 Translational            0.889              2.981             42.448
 Rotational               0.889              2.981             31.107
 Vibrational             42.012             35.613             38.745
 Vibration     1          0.596              1.977              4.745
 Vibration     2          0.598              1.969              4.208
 Vibration     3          0.600              1.963              3.899
 Vibration     4          0.604              1.950              3.470
 Vibration     5          0.604              1.948              3.417
 Vibration     6          0.612              1.922              2.926
 Vibration     7          0.624              1.885              2.485
 Vibration     8          0.661              1.768              1.751
 Vibration     9          0.697              1.662              1.383
 Vibration    10          0.711              1.622              1.275
 Vibration    11          0.738              1.546              1.103
 Vibration    12          0.753              1.505              1.025
 Vibration    13          0.770              1.460              0.946
 Vibration    14          0.776              1.445              0.921
 Vibration    15          0.807              1.366              0.802
 Vibration    16          0.817              1.342              0.770
 Vibration    17          0.827              1.316              0.736
 Vibration    18          0.890              1.172              0.576
 Vibration    19          0.915              1.119              0.525
 Vibration    20          0.940              1.068              0.480
 Vibration    21          0.946              1.055              0.469

 Optimization completed.
    -- Stationary point found.
 Normal termination of Gaussian 16 at Sat Jun 18 11:02:08 2022.
