 Gaussian 16, Revision C.01,
 Gaussian 16:  ES64L-G16RevC.01  3-Jul-2019

 ---------------------------
 # opt freq b3lyp/6-31G(d,p)
 ---------------------------

 -------------------
 Title Card Required
 -------------------
 Symbolic Z-matrix:
 Charge =  0 Multiplicity = 1

 SCF Done:  E(RB3LYP) =  -113.307907847     A.U. after   10 cycles
 SCF Done:  E(RB3LYP) =  -113.309443385     A.U. after    9 cycles
 SCF Done:  E(RB3LYP) =  -113.309453139     A.U. after    6 cycles
 Optimization completed.
    -- Stationary point found.

 1\1\GINC-NODE7-IB\FOpt\RB3LYP\6-31G(d,p)\C1O1\CHESAGAR\04-Nov-2021\0\\
 # opt freq b3lyp/6-31G(d,p)\\Title Card Required\\0,1\C,2.7177754954,-
 0.7987561792,-0.903805492\O,3.8372025046,-0.9913818208,-0.972184508\\V
 ersion=ES64L-G16RevC.01\State=1-SG\HF=-113.3094531\RMSD=9.349e-09\RMSF
 =2.942e-06\Dipole=0.023178,-0.0039884,-0.0014158\Quadrupole=-0.975576,
 0.4685321,0.5070439,0.2560776,0.0909035,-0.0156422\PG=C*V [C*(C1O1)]\\
 @
 The archive entry for this job was punched.

 Normal termination of Gaussian 16 at Thu Nov  4 11:39:05 2021.

 ----------------------------------------------------------------------
 #N Geom=AllCheck Guess=TCheck SCRF=Check GenChk RB3LYP/6-31G(d,p) Freq
 ----------------------------------------------------------------------

 Structure from the checkpoint file:  "CO.chk"
 -------------------
 Title Card Required
 -------------------
 Charge =  0 Multiplicity = 1

                         Standard orientation:
 ---------------------------------------------------------------------
 Center     Atomic      Atomic             Coordinates (Angstroms)
 Number     Number       Type             X           Y           Z
 ---------------------------------------------------------------------
      1          6           0        0.000000    0.000000   -0.650249
      2          8           0       -0.000000   -0.000000    0.487687
 ---------------------------------------------------------------------

 SCF Done:  E(RB3LYP) =  -113.309453139     A.U. after    1 cycles

 The electronic state is 1-SG.
 Alpha  occ. eigenvalues --  -19.25805 -10.30433  -1.15790  -0.57004  -0.46743
 Alpha  occ. eigenvalues --   -0.46743  -0.37145
 Alpha virt. eigenvalues --   -0.02178  -0.02178   0.26241   0.51174   0.51174
 Alpha virt. eigenvalues --    0.57521   0.74923   0.79954   0.91633   0.91633
 Alpha virt. eigenvalues --    1.37166   1.47906   1.47906   1.54042   1.54042

 Mulliken charges:
               1
     1  C    0.174375
     2  O   -0.174375
 Sum of Mulliken charges =   0.00000

 Dipole moment (field-independent basis, Debye):
    X=              0.0000    Y=             -0.0000    Z=              0.0599  Tot=              0.0599
 Quadrupole moment (field-independent basis, Debye-Ang):
   XX=             -9.8673   YY=             -9.8673   ZZ=            -11.9357
   XY=              0.0000   XZ=              0.0000   YZ=              0.0000

  Exact polarizability:       7.981       0.000       7.981      -0.000       0.000      12.607
 Approx polarizability:      11.027       0.000      11.027      -0.000       0.000      23.210

                      1
                     SG
 Frequencies --   2209.0532
 Red. masses --     13.4388
 Frc consts  --     38.6386
 IR Inten    --     67.9588

 - Thermochemistry -
 -------------------
 Temperature   298.150 Kelvin.  Pressure   1.00000 Atm.
 Atom     1 has atomic number  6 and mass  12.00000

 Molecular mass:    27.99491 amu.
 Principal axes and moments of inertia in atomic units:
                           1         2         3
     Eigenvalues --     0.00000  31.70422  31.70422
           X           -0.00000   0.09295   0.99567
           Y            0.00000   0.99567  -0.09295
           Z            1.00000   0.00000   0.00000
 This molecule is a prolate symmetric top.
 Rotational symmetry number  1.
 Rotational temperature (Kelvin)      2.73194
 Rotational constant (GHZ):          56.924326
 Zero-point vibrational energy      13213.1 (Joules/Mol)
                                    3.15800 (Kcal/Mol)
 Vibrational temperatures:   3178.33
          (Kelvin)

 Zero-point correction=                           0.005033 (Hartree/Particle)
 Thermal correction to Energy=                    0.007393
 Thermal correction to Enthalpy=                  0.008337
 Thermal correction to Gibbs Free Energy=        -0.014106
 Sum of electronic and zero-point Energies=           -113.304421
 Sum of electronic and thermal Energies=              -113.302060
 Sum of electronic and thermal Enthalpies=            -113.301116
 Sum of electronic and thermal Free Energies=         -113.323559

                     E (Thermal)             CV                S
                      KCal/Mol        Cal/Mol-Kelvin    Cal/Mol-Kelvin
 Total                    4.639              4.973             47.236
 Electronic               0.000              0.000              0.000
 Translational            0.889              2.981             35.923
 Rotational               0.592              1.987             11.312
 Vibrational              3.158              0.005              0.001

 Optimization completed.
    -- Stationary point found.

 1\1\GINC-NODE7-IB\Freq\RB3LYP\6-31G(d,p)\C1O1\CHESAGAR\04-Nov-2021\0\\
 #N Geom=AllCheck Guess=TCheck SCRF=Check GenChk RB3LYP/6-31G(d,p) Freq
 \\Title Card Required\\0,1\C,2.7177754954,-0.7987561792,-0.903805492\O
 ,3.8372025046,-0.9913818208,-0.972184508\\Version=ES64L-G16RevC.01\Sta
 te=1-SG\HF=-113.3094531\RMSD=4.903e-09\RMSF=2.985e-06\ZeroPoint=0.0050
 326\Thermal=0.0073933\ETot=-113.3020598\HTot=-113.3011157\GTot=-113.32
 35589\Dipole=0.0231774,-0.0039883,-0.0014158\DipoleDeriv=0.6686766,-0.
 1169472,-0.0415144,-0.1169472,0.0091718,0.0071436,-0.0415144,0.0071436

 Normal termination of Gaussian 16 at Thu Nov  4 11:39:08 2021.
