 Gaussian 16, Revision C.01,
 Gaussian 16:  ES64L-G16RevC.01  3-Jul-2019

 ---------------------------
 # opt freq b3lyp/6-31G(d,p)
 ---------------------------

 -------------------
 Title Card Required
 -------------------
 Symbolic Z-matrix:
 Charge =  0 Multiplicity = 1

 SCF Done:  E(RB3LYP) =  -1.16625518807     A.U. after    5 cycles
 SCF Done:  E(RB3LYP) =  -1.17846340317     A.U. after    6 cycles
 SCF Done:  E(RB3LYP) =  -1.17853928639     A.U. after    4 cycles
 Optimization completed.
    -- Stationary point found.
 Normal termination of Gaussian 16 at Thu Nov  4 14:36:34 2021.

 ----------------------------------------------------------------------
 #N Geom=AllCheck Guess=TCheck SCRF=Check GenChk RB3LYP/6-31G(d,p) Freq
 ----------------------------------------------------------------------

 Structure from the checkpoint file:  "H2.chk"
 -------------------
 Title Card Required
 -------------------
 Charge =  0 Multiplicity = 1

                         Standard orientation:
 ---------------------------------------------------------------------
 Center     Atomic      Atomic             Coordinates (Angstroms)
 Number     Number       Type             X           Y           Z
 ---------------------------------------------------------------------
      1          1           0        0.000000    0.000000    0.371235
      2          1           0        0.000000    0.000000   -0.371235
 ---------------------------------------------------------------------

 SCF Done:  E(RB3LYP) =  -1.17853928639     A.U. after    1 cycles

 The electronic state is 1-SGG.
 Alpha  occ. eigenvalues --   -0.43164
 Alpha virt. eigenvalues --    0.10106   0.57689   1.03636   1.67468   1.67468
 Alpha virt. eigenvalues --    2.37949   2.61602   2.61602   4.15444

 Mulliken charges:
               1
     1  H   -0.000000
     2  H   -0.000000
 Sum of Mulliken charges =  -0.00000

 Dipole moment (field-independent basis, Debye):
    X=             -0.0000    Y=             -0.0000    Z=              0.0000  Tot=              0.0000
 Quadrupole moment (field-independent basis, Debye-Ang):
   XX=             -2.0287   YY=             -2.0287   ZZ=             -1.5076
   XY=             -0.0000   XZ=             -0.0000   YZ=              0.0000

  Exact polarizability:       0.582       0.000       0.582      -0.000       0.000       6.361
 Approx polarizability:       0.599      -0.000       0.599      -0.000      -0.000       7.758

                      1
                     SGG
 Frequencies --   4470.3026
 Red. masses --      1.0078
 Frc consts  --     11.8661
 IR Inten    --      0.0000

 - Thermochemistry -
 -------------------
 Temperature   298.150 Kelvin.  Pressure   1.00000 Atm.
 Atom     1 has atomic number  1 and mass   1.00783

 Molecular mass:     2.01565 amu.
 Principal axes and moments of inertia in atomic units:
                           1         2         3
     Eigenvalues --     0.00000   0.99200   0.99200
           X           -0.00000   1.00000  -0.00000
           Y            0.00000   0.00000   1.00000
           Z            1.00000   0.00000  -0.00000
 This molecule is a prolate symmetric top.
 Rotational symmetry number  2.
 Rotational temperature (Kelvin)     87.31255
 Rotational constant (GHZ):        1819.298256
 Zero-point vibrational energy      26738.3 (Joules/Mol)
                                    6.39062 (Kcal/Mol)
 Vibrational temperatures:   6431.77
          (Kelvin)

 Zero-point correction=                           0.010184 (Hartree/Particle)
 Thermal correction to Energy=                    0.012545
 Thermal correction to Enthalpy=                  0.013489
 Thermal correction to Gibbs Free Energy=        -0.001302
 Sum of electronic and zero-point Energies=             -1.168355
 Sum of electronic and thermal Energies=                -1.165995
 Sum of electronic and thermal Enthalpies=              -1.165051
 Sum of electronic and thermal Free Energies=           -1.179842

                     E (Thermal)             CV                S
                      KCal/Mol        Cal/Mol-Kelvin    Cal/Mol-Kelvin
 Total                    7.872              4.968             31.131
 Electronic               0.000              0.000              0.000
 Translational            0.889              2.981             28.080
 Rotational               0.592              1.987              3.050
 Vibrational              6.391              0.000              0.000

 Optimization completed.
    -- Stationary point found.
 Normal termination of Gaussian 16 at Thu Nov  4 14:36:37 2021.
