 Gaussian 16, Revision C.01,
 Gaussian 16:  ES64L-G16RevC.01  3-Jul-2019

 ---------------------------------------
 # opt freq b3lyp/gen nosymm pseudo=read
 ---------------------------------------

 -------------------
 Title Card Required
 -------------------
 Symbolic Z-matrix:
 Charge =  0 Multiplicity = 3

 SCF Done:  E(UB3LYP) =  -294.123082983     A.U. after   19 cycles
 SCF Done:  E(UB3LYP) =  -294.124792984     A.U. after   15 cycles
 SCF Done:  E(UB3LYP) =  -294.126604413     A.U. after   17 cycles
 SCF Done:  E(UB3LYP) =  -294.126846816     A.U. after   15 cycles
 SCF Done:  E(UB3LYP) =  -294.126848598     A.U. after   13 cycles
 Optimization completed.
    -- Stationary point found.
 Normal termination of Gaussian 16 at Fri Jul  7 14:22:27 2023.

 ------------------------------------------------------------------
 #N Geom=AllCheck Guess=TCheck SCRF=Check GenChk UB3LYP/ChkBas Freq
 ------------------------------------------------------------------

 Structure from the checkpoint file:  "MoCO2_sm3.chk"
 -------------------
 Title Card Required
 -------------------
 Charge =  0 Multiplicity = 3

                          Input orientation:
 ---------------------------------------------------------------------
 Center     Atomic      Atomic             Coordinates (Angstroms)
 Number     Number       Type             X           Y           Z
 ---------------------------------------------------------------------
      1         42           0       -0.154888   -0.537000   -0.896523
      2          6           0       -0.268984   -2.460604   -0.753974
      3          6           0       -0.151839   -1.038047   -2.762671
      4          8           0       -0.152458   -1.384283   -3.877273
      5          8           0       -0.336940   -3.625051   -0.713220
 ---------------------------------------------------------------------

 SCF Done:  E(UB3LYP) =  -294.126848598     A.U. after    1 cycles

 Alpha  occ. eigenvalues --  -19.19572 -19.19569 -10.27582 -10.27579  -2.46812
 Alpha  occ. eigenvalues --   -1.50622  -1.49749  -1.49336  -1.09549  -1.09426
 Alpha  occ. eigenvalues --   -0.54858  -0.53184  -0.44447  -0.42757  -0.42670
 Alpha  occ. eigenvalues --   -0.42340  -0.42043  -0.40032  -0.23138  -0.22449
 Alpha  occ. eigenvalues --   -0.21565  -0.20380
 Alpha virt. eigenvalues --   -0.08286  -0.07820  -0.05979   0.02586   0.02980
 Alpha virt. eigenvalues --    0.03681   0.03892   0.05021   0.05075   0.12743
 Alpha virt. eigenvalues --    0.13038   0.19177   0.24911   0.27959   0.31178

  Beta  occ. eigenvalues --  -19.19516 -19.19514 -10.27679 -10.27676  -2.42218
  Beta  occ. eigenvalues --   -1.46487  -1.45241  -1.42297  -1.09468  -1.09343
  Beta  occ. eigenvalues --   -0.54810  -0.53085  -0.44440  -0.42392  -0.42338
  Beta  occ. eigenvalues --   -0.42193  -0.41486  -0.39938  -0.21341  -0.19162
  Beta virt. eigenvalues --   -0.10542  -0.08951  -0.06742  -0.06007  -0.04009
  Beta virt. eigenvalues --    0.03285   0.03637   0.04184   0.05366   0.05393
  Beta virt. eigenvalues --    0.05480   0.13585   0.15343   0.20447   0.27212

 Mulliken charges and spin densities:
               1          2
     1  Mo   0.225525   2.029644
     2  C    0.160119  -0.040619
     3  C    0.160117  -0.040619
     4  O   -0.272882   0.025795
     5  O   -0.272879   0.025798
 Sum of Mulliken charges =  -0.00000   2.00000

 Dipole moment (field-independent basis, Debye):
    X=              0.1896    Y=              4.1441    Z=              2.9459  Tot=              5.0880
 Quadrupole moment (field-independent basis, Debye-Ang):
   XX=            -42.9861   YY=            -52.7738   ZZ=            -53.0718
   XY=             -1.0428   XZ=             -0.5871   YZ=             -6.0871

  Exact polarizability:      60.932       1.167      79.917      -0.593      -3.715      82.599
 Approx polarizability:      80.482       5.512     175.258      -1.649       0.015     175.605

                      1                      2                      3
                      A                      A                      A
 Frequencies --    100.3463               364.9269               396.1840
 Red. masses --     16.7773                12.7387                13.0130
 Frc consts  --      0.0995                 0.9995                 1.2034
 IR Inten    --      1.1001                 0.0001                 7.7874

                      4                      5                      6
                      A                      A                      A
 Frequencies --    408.3102               460.1205               510.6146
 Red. masses --     12.9776                16.4468                16.5650
 Frc consts  --      1.2748                 2.0515                 2.5447
 IR Inten    --      1.9878                36.1053                 1.5325

                      7                      8                      9
                      A                      A                      A
 Frequencies --    629.4836              1927.7649              2038.6221
 Red. masses --     13.4469                13.4174                13.3170
 Frc consts  --      3.1394                29.3784                32.6084
 IR Inten    --      0.0995              1201.8955               555.3807

 - Thermochemistry -
 -------------------
 Temperature   298.150 Kelvin.  Pressure   1.00000 Atm.
 Atom     1 has atomic number 42 and mass  97.90550

 Molecular mass:   153.89533 amu.
 Principal axes and moments of inertia in atomic units:
                           1         2         3
     Eigenvalues --   560.27323 560.391881120.66511
           X           -0.04790   0.03672   0.99818
           Y           -0.58536   0.80871  -0.05784
           Z            0.80936   0.58707   0.01724
 This molecule is an asymmetric top.
 Rotational symmetry number  1.
 Warning -- assumption of classical behavior for rotation
           may cause significant error
 Rotational temperatures (Kelvin)      0.15459     0.15456     0.07729
 Rotational constants (GHZ):           3.22118     3.22050     1.61042
 Zero-point vibrational energy      40890.6 (Joules/Mol)
                                    9.77309 (Kcal/Mol)
 Warning -- explicit consideration of   6 degrees of freedom as
           vibrations may cause significant error
 Vibrational temperatures:    144.38   525.05   570.02   587.47   662.01
          (Kelvin)            734.66   905.69  2773.62  2933.12

 Zero-point correction=                           0.015574 (Hartree/Particle)
 Thermal correction to Energy=                    0.020718
 Thermal correction to Enthalpy=                  0.021662
 Thermal correction to Gibbs Free Energy=        -0.015780
 Sum of electronic and zero-point Energies=           -294.111274
 Sum of electronic and thermal Energies=              -294.106131
 Sum of electronic and thermal Enthalpies=            -294.105187
 Sum of electronic and thermal Free Energies=         -294.142628

                     E (Thermal)             CV                S
                      KCal/Mol        Cal/Mol-Kelvin    Cal/Mol-Kelvin
 Total                   13.001             15.946             78.802
 Electronic               0.000              0.000              2.183
 Translational            0.889              2.981             41.003
 Rotational               0.889              2.981             27.356
 Vibrational             11.223              9.985              8.261
 Vibration     1          0.604              1.949              3.448
 Vibration     2          0.738              1.544              1.101
 Vibration     3          0.763              1.478              0.977
 Vibration     4          0.773              1.452              0.933
 Vibration     5          0.818              1.339              0.766
 Vibration     6          0.866              1.226              0.632

 Optimization completed.
    -- Stationary point found.
 Normal termination of Gaussian 16 at Fri Jul  7 14:22:53 2023.
