 Gaussian 16, Revision C.01,
 Gaussian 16:  ES64L-G16RevC.01  3-Jul-2019

 ---------------------------------------
 # opt freq b3lyp/gen nosymm pseudo=read
 ---------------------------------------

 -------------------
 Title Card Required
 -------------------
 Symbolic Z-matrix:
 Charge =  0 Multiplicity = 1

 SCF Done:  E(RB3LYP) =  -294.120159597     A.U. after   18 cycles
 SCF Done:  E(RB3LYP) =  -294.120160172     A.U. after   10 cycles
 Optimization completed.
    -- Stationary point found.
 Normal termination of Gaussian 16 at Mon Sep 19 21:10:07 2022.

 ------------------------------------------------------------------
 #N Geom=AllCheck Guess=TCheck SCRF=Check GenChk RB3LYP/ChkBas Freq
 ------------------------------------------------------------------

 Structure from the checkpoint file:  "/localscratch/chegho/Gau-118911.chk"
 -------------------
 Title Card Required
 -------------------
 Charge =  0 Multiplicity = 1

                          Input orientation:
 ---------------------------------------------------------------------
 Center     Atomic      Atomic             Coordinates (Angstroms)
 Number     Number       Type             X           Y           Z
 ---------------------------------------------------------------------
      1         42           0       -0.160137   -0.643489   -0.972242
      2          6           0       -0.273399   -2.524644   -0.679457
      3          6           0       -0.147005   -0.989034   -2.847799
      4          8           0       -0.140329   -1.205751   -4.000410
      5          8           0       -0.344239   -3.682068   -0.503753
 ---------------------------------------------------------------------

 SCF Done:  E(RB3LYP) =  -294.120160172     A.U. after    1 cycles

 Alpha  occ. eigenvalues --  -19.17632 -19.17630 -10.25838 -10.25833  -2.43722
 Alpha  occ. eigenvalues --   -1.46973  -1.46542  -1.46429  -1.07483  -1.07434
 Alpha  occ. eigenvalues --   -0.52840  -0.51889  -0.41854  -0.40938  -0.40836
 Alpha  occ. eigenvalues --   -0.40793  -0.40377  -0.39203  -0.21094  -0.20266
 Alpha  occ. eigenvalues --   -0.19901
 Alpha virt. eigenvalues --   -0.11445  -0.07178  -0.06891  -0.05096   0.03630
 Alpha virt. eigenvalues --    0.04220   0.04974   0.05053   0.05957   0.06644
 Alpha virt. eigenvalues --    0.13510   0.14536   0.22079   0.26940   0.28125

 Mulliken charges:
               1
     1  Mo   0.252726
     2  C    0.174313
     3  C    0.174309
     4  O   -0.300675
     5  O   -0.300673
 Sum of Mulliken charges =  -0.00000

 Dipole moment (field-independent basis, Debye):
    X=              0.2086    Y=              4.6277    Z=              3.2895  Tot=              5.6815
 Quadrupole moment (field-independent basis, Debye-Ang):
   XX=            -39.5724   YY=            -55.7120   ZZ=            -56.5748
   XY=             -1.4810   XZ=             -0.5130   YZ=             -6.0692

  Exact polarizability:      37.482       2.070      70.243      -1.263      -9.864      77.279
 Approx polarizability:      48.212       7.458     173.636      -3.010     -11.477     182.153

                      1                      2                      3
                      A                      A                      A
 Frequencies --     94.4571               381.1321               397.4581
 Red. masses --     17.2128                12.7108                13.0132
 Frc consts  --      0.0905                 1.0879                 1.2112
 IR Inten    --      1.4645                 0.0001                17.4253

                      4                      5                      6
                      A                      A                      A
 Frequencies --    403.3613               513.5123               517.8979
 Red. masses --     12.8058                17.3530                15.8575
 Frc consts  --      1.2276                 2.6960                 2.5060
 IR Inten    --      5.5333                11.9763                 2.5951

                      7                      8                      9
                      A                      A                      A
 Frequencies --    651.0615              1936.8419              2007.9629
 Red. masses --     13.6745                13.3497                13.3078
 Frc consts  --      3.4151                29.5059                31.6132
 IR Inten    --      0.5600              1178.3433               458.7452

 - Thermochemistry -
 -------------------
 Temperature   298.150 Kelvin.  Pressure   1.00000 Atm.
 Atom     1 has atomic number 42 and mass  97.90550

 Molecular mass:   153.89533 amu.
 Principal axes and moments of inertia in atomic units:
                           1         2         3
     Eigenvalues --   469.66289 677.111531146.77435
           X           -0.04753   0.03707   0.99818
           Y           -0.57729   0.81450  -0.05774
           Z            0.81515   0.57898   0.01731
 This molecule is an asymmetric top.
 Rotational symmetry number  1.
 Warning -- assumption of classical behavior for rotation
           may cause significant error
 Rotational temperatures (Kelvin)      0.18442     0.12792     0.07553
 Rotational constants (GHZ):           3.84263     2.66535     1.57375
 Zero-point vibrational energy      41293.2 (Joules/Mol)
                                    9.86931 (Kcal/Mol)
 Warning -- explicit consideration of   6 degrees of freedom as
           vibrations may cause significant error
 Vibrational temperatures:    135.90   548.36   571.85   580.35   738.83
          (Kelvin)            745.14   936.73  2786.68  2889.01

 Zero-point correction=                           0.015728 (Hartree/Particle)
 Thermal correction to Energy=                    0.020812
 Thermal correction to Enthalpy=                  0.021757
 Thermal correction to Gibbs Free Energy=        -0.014605
 Sum of electronic and zero-point Energies=           -294.104432
 Sum of electronic and thermal Energies=              -294.099348
 Sum of electronic and thermal Enthalpies=            -294.098403
 Sum of electronic and thermal Free Energies=         -294.134765

                     E (Thermal)             CV                S
                      KCal/Mol        Cal/Mol-Kelvin    Cal/Mol-Kelvin
 Total                   13.060             15.746             76.530
 Electronic               0.000              0.000              0.000
 Translational            0.889              2.981             41.003
 Rotational               0.889              2.981             27.391
 Vibrational             11.283              9.785              8.136
 Vibration     1          0.603              1.953              3.566
 Vibration     2          0.751              1.510              1.035
 Vibration     3          0.764              1.476              0.972
 Vibration     4          0.769              1.463              0.950
 Vibration     5          0.869              1.220              0.625
 Vibration     6          0.873              1.210              0.615

 Optimization completed.
    -- Stationary point found.
 Normal termination of Gaussian 16 at Mon Sep 19 21:10:22 2022.
