 Gaussian 16, Revision C.01,
 Gaussian 16:  ES64L-G16RevC.01  3-Jul-2019

 ---------------------------------------
 # opt freq b3lyp/gen nosymm pseudo=read
 ---------------------------------------

 -------------------
 Title Card Required
 -------------------
 Symbolic Z-matrix:
 Charge =  0 Multiplicity = 1

 SCF Done:  E(RB3LYP) =  -180.696567995     A.U. after   35 cycles
 SCF Done:  E(RB3LYP) =  -180.696568406     A.U. after   13 cycles
 Optimization completed.
    -- Stationary point found.
 Normal termination of Gaussian 16 at Mon Sep 19 21:11:37 2022.

 ------------------------------------------------------------------
 #N Geom=AllCheck Guess=TCheck SCRF=Check GenChk RB3LYP/ChkBas Freq
 ------------------------------------------------------------------

 Structure from the checkpoint file:  "/localscratch/chegho/Gau-120112.chk"
 -------------------
 Title Card Required
 -------------------
 Charge =  0 Multiplicity = 1

                          Input orientation:
 ---------------------------------------------------------------------
 Center     Atomic      Atomic             Coordinates (Angstroms)
 Number     Number       Type             X           Y           Z
 ---------------------------------------------------------------------
      1         42           0       -0.061440    0.817981   -1.760181
      2          6           0       -0.102029   -0.325136   -3.254556
      3          8           0       -0.127757   -1.047617   -4.192999
 ---------------------------------------------------------------------

 SCF Done:  E(RB3LYP) =  -180.696568406     A.U. after    1 cycles

 Alpha  occ. eigenvalues --  -19.13648 -10.21846  -2.39939  -1.43461  -1.42499
 Alpha  occ. eigenvalues --   -1.42498  -1.03143  -0.48951  -0.37277  -0.36853
 Alpha  occ. eigenvalues --   -0.36853  -0.17005  -0.17005  -0.15449
 Alpha virt. eigenvalues --   -0.10703  -0.06372  -0.04516  -0.02645  -0.02644
 Alpha virt. eigenvalues --    0.06309   0.06309   0.06563   0.14498   0.14499
 Alpha virt. eigenvalues --    0.17429   0.27320   0.31522   0.33296   0.35132

 Mulliken charges:
               1
     1  Mo   0.193522
     2  C    0.142805
     3  O   -0.336328
 Sum of Mulliken charges =   0.00000

 Dipole moment (field-independent basis, Debye):
    X=              0.1134    Y=              3.1923    Z=              4.1700  Tot=              5.2529
 Quadrupole moment (field-independent basis, Debye-Ang):
   XX=            -30.0318   YY=            -29.7348   ZZ=            -53.1235
   XY=             -0.2782   XZ=             -0.6862   YZ=             -8.6652

  Exact polarizability:      37.988       0.466      51.295       0.621      17.465      60.865
 Approx polarizability:      42.961       1.952      98.091       2.574      72.203     137.344

                      1                      2                      3
                      A                      A                      A
 Frequencies --    361.5573               543.6237              1910.4154
 Red. masses --     12.8562                17.5125                13.3089
 Frc consts  --      0.9902                 3.0493                28.6187
 IR Inten    --      9.5932                 4.0725               771.0425

 - Thermochemistry -
 -------------------
 Temperature   298.150 Kelvin.  Pressure   1.00000 Atm.
 Atom     1 has atomic number 42 and mass  97.90550

 Molecular mass:   125.90041 amu.
 Principal axes and moments of inertia in atomic units:
                           1         2         3
     Eigenvalues --     0.00017 543.34126 543.34143
           X            0.02161   0.04872   0.99858
           Y            0.60819   0.79210  -0.05181
           Z            0.79349  -0.60845   0.01251
 This molecule is an asymmetric top.
 Rotational symmetry number  1.
 Rotational temperatures (Kelvin) 516707.46630     0.15941     0.15941
 Rotational constants (GHZ):      ************     3.32156     3.32156
 Zero-point vibrational energy      16841.0 (Joules/Mol)
                                    4.02510 (Kcal/Mol)
 Warning -- explicit consideration of   2 degrees of freedom as
           vibrations may cause significant error
 Vibrational temperatures:    520.20   782.15  2748.66
          (Kelvin)

 Zero-point correction=                           0.006414 (Hartree/Particle)
 Thermal correction to Energy=                    0.009790
 Thermal correction to Enthalpy=                  0.010734
 Thermal correction to Gibbs Free Energy=        -0.014808
 Sum of electronic and zero-point Energies=           -180.690154
 Sum of electronic and thermal Energies=              -180.686778
 Sum of electronic and thermal Enthalpies=            -180.685834
 Sum of electronic and thermal Free Energies=         -180.711377

                     E (Thermal)             CV                S
                      KCal/Mol        Cal/Mol-Kelvin    Cal/Mol-Kelvin
 Total                    6.143              8.683             53.759
 Electronic               0.000              0.000              0.000
 Translational            0.889              2.981             40.405
 Rotational               0.889              2.981             11.680
 Vibrational              4.366              2.722              1.675
 Vibration     1          0.736              1.551              1.115
 Vibration     2          0.899              1.154              0.558

 Optimization completed.
    -- Stationary point found.
 Normal termination of Gaussian 16 at Mon Sep 19 21:11:48 2022.
