 Gaussian 16, Revision C.01,
 Gaussian 16:  ES64L-G16RevC.01  3-Jul-2019

 ----------------------------------------------------------
 # opt freq b3lyp/gen nosymm pseudo=read scf=maxcycles=1000
 ----------------------------------------------------------

 -------------------
 Title Card Required
 -------------------
 Symbolic Z-matrix:
 Charge =  0 Multiplicity = 5

 SCF Done:  E(UB3LYP) =  -180.751865248     A.U. after   45 cycles
 SCF Done:  E(UB3LYP) =  -180.753616359     A.U. after   43 cycles
 SCF Done:  E(UB3LYP) =  -180.753706878     A.U. after   93 cycles
 Optimization completed.
    -- Stationary point found.
 Normal termination of Gaussian 16 at Fri Jul  7 14:43:12 2023.

 ------------------------------------------------------------------
 #N Geom=AllCheck Guess=TCheck SCRF=Check GenChk UB3LYP/ChkBas Freq
 ------------------------------------------------------------------

 Structure from the checkpoint file:  "MoCO_sm5.chk"
 -------------------
 Title Card Required
 -------------------
 Charge =  0 Multiplicity = 5

                          Input orientation:
 ---------------------------------------------------------------------
 Center     Atomic      Atomic             Coordinates (Angstroms)
 Number     Number       Type             X           Y           Z
 ---------------------------------------------------------------------
      1         42           0       -0.060575    0.842373   -1.728193
      2          6           0       -0.102605   -0.341467   -3.276231
      3          8           0       -0.128046   -1.055678   -4.203312
 ---------------------------------------------------------------------

 SCF Done:  E(UB3LYP) =  -180.753706878     A.U. after    2 cycles

 Alpha  occ. eigenvalues --  -19.19462 -10.26217  -2.47181  -1.51559  -1.50520
 Alpha  occ. eigenvalues --   -1.49020  -1.08917  -0.53306  -0.42400  -0.41920
 Alpha  occ. eigenvalues --   -0.40995  -0.23143  -0.21270  -0.20887  -0.20798
 Alpha  occ. eigenvalues --   -0.19161
 Alpha virt. eigenvalues --   -0.07553  -0.05092  -0.04216   0.03303   0.04270
 Alpha virt. eigenvalues --    0.04794   0.10874   0.11828   0.15742   0.22772
 Alpha virt. eigenvalues --    0.29433   0.29457   0.32726   0.33841   0.44327

  Beta  occ. eigenvalues --  -19.19335 -10.26490  -2.38098  -1.42226  -1.39236
  Beta  occ. eigenvalues --   -1.38736  -1.08725  -0.53271  -0.41919  -0.41165
  Beta  occ. eigenvalues --   -0.40903  -0.16730
  Beta virt. eigenvalues --   -0.09789  -0.08647  -0.04910  -0.03523  -0.03250
  Beta virt. eigenvalues --   -0.02358  -0.01794   0.04535   0.05563   0.05675
  Beta virt. eigenvalues --    0.14287   0.14515   0.17292   0.25263   0.34744

 Mulliken charges and spin densities:
               1          2
     1  Mo   0.156950   4.058071
     2  C    0.100891  -0.120355
     3  O   -0.257840   0.062284
 Sum of Mulliken charges =   0.00000   4.00000

 Dipole moment (field-independent basis, Debye):
    X=              0.0797    Y=              2.2392    Z=              2.9255  Tot=              3.6850
 Quadrupole moment (field-independent basis, Debye-Ang):
   XX=            -33.9896   YY=            -30.6416   ZZ=            -46.1244
   XY=             -0.0047   XZ=             -0.4844   YZ=             -4.4271

  Exact polarizability:      66.964       0.115      73.600       0.492      11.974      79.999
 Approx polarizability:      82.532       0.680     109.767       1.821      44.672     133.776

                      1                      2                      3
                      A                      A                      A
 Frequencies --    328.7701               478.2923              1977.4128
 Red. masses --     12.8673                17.4579                13.3406
 Frc consts  --      0.8194                 2.3530                30.7341
 IR Inten    --      3.7422                 1.0461               706.9173

 - Thermochemistry -
 -------------------
 Temperature   298.150 Kelvin.  Pressure   1.00000 Atm.
 Atom     1 has atomic number 42 and mass  97.90550

 Molecular mass:   125.90041 amu.
 Principal axes and moments of inertia in atomic units:
                           1         2         3
     Eigenvalues --     0.00022 566.41743 566.41765
           X            0.02161   0.04844   0.99859
           Y            0.60817   0.79213  -0.05158
           Z            0.79351  -0.60843   0.01234
 This molecule is an asymmetric top.
 Rotational symmetry number  1.
 Rotational temperatures (Kelvin) 390935.08341     0.15292     0.15292
 Rotational constants (GHZ):      ************     3.18624     3.18624
 Zero-point vibrational energy      16654.9 (Joules/Mol)
                                    3.98061 (Kcal/Mol)
 Warning -- explicit consideration of   2 degrees of freedom as
           vibrations may cause significant error
 Vibrational temperatures:    473.03   688.16  2845.06
          (Kelvin)

 Zero-point correction=                           0.006344 (Hartree/Particle)
 Thermal correction to Energy=                    0.009803
 Thermal correction to Enthalpy=                  0.010747
 Thermal correction to Gibbs Free Energy=        -0.016632
 Sum of electronic and zero-point Energies=           -180.747363
 Sum of electronic and thermal Energies=              -180.743904
 Sum of electronic and thermal Enthalpies=            -180.742960
 Sum of electronic and thermal Free Energies=         -180.770339

                     E (Thermal)             CV                S
                      KCal/Mol        Cal/Mol-Kelvin    Cal/Mol-Kelvin
 Total                    6.151              8.891             57.625
 Electronic               0.000              0.000              3.198
 Translational            0.889              2.981             40.405
 Rotational               0.889              2.981             12.039
 Vibrational              4.374              2.929              1.982
 Vibration     1          0.712              1.618              1.266
 Vibration     2          0.835              1.298              0.715

 Optimization completed.
    -- Stationary point found.
 Normal termination of Gaussian 16 at Fri Jul  7 14:43:26 2023.
