 Gaussian 16, Revision C.01,
 Gaussian 16:  ES64L-G16RevC.01  3-Jul-2019

 -----------------------------------------------------------
 # opt=(calcfc,ts,noeigen) freq b3lyp/gen nosymm pseudo=read
 -----------------------------------------------------------

 -------------------
 Title Card Required
 -------------------
 Symbolic Z-matrix:
 Charge =  0 Multiplicity = 1

 SCF Done:  E(RB3LYP) =  -1777.25274397     A.U. after   20 cycles
 SCF Done:  E(RB3LYP) =  -1777.25805031     A.U. after   14 cycles
 SCF Done:  E(RB3LYP) =  -1777.25829271     A.U. after   14 cycles
 SCF Done:  E(RB3LYP) =  -1777.25830603     A.U. after   13 cycles
 SCF Done:  E(RB3LYP) =  -1777.25830659     A.U. after   12 cycles
 Optimization completed.
    -- Stationary point found.
 Normal termination of Gaussian 16 at Sat Jul 30 18:00:18 2022.

 ------------------------------------------------------------------
 #N Geom=AllCheck Guess=TCheck SCRF=Check GenChk RB3LYP/ChkBas Freq
 ------------------------------------------------------------------

 Structure from the checkpoint file:  "/localscratch/chegho/Gau-32935.chk"
 -------------------
 Title Card Required
 -------------------
 Charge =  0 Multiplicity = 1

                          Input orientation:
 ---------------------------------------------------------------------
 Center     Atomic      Atomic             Coordinates (Angstroms)
 Number     Number       Type             X           Y           Z
 ---------------------------------------------------------------------
      1         42           0        2.433175    0.110210    0.186837
      2          6           0        2.384879   -1.902094    0.354625
      3          8           0        2.370940   -3.047452    0.499849
      4         16           0        0.449022   -0.022409   -1.007415
      5          1           0        0.055101    1.272609   -1.115448
      6         16           0        2.448970    0.344595    2.513533
      7          1           0        2.434985   -0.913390    3.011802
      8         16           0        2.515117    2.549205   -0.035745
      9          1           0        3.991191    2.486080   -0.853062
     10          1           0        3.154706    3.006607    1.065876
     11         16           0        4.438058    0.060979   -1.111440
     12          1           0        5.288088    0.014603   -0.061276
     13          1           0        4.595623    1.798588   -1.172612
 ---------------------------------------------------------------------

 SCF Done:  E(RB3LYP) =  -1777.25830659     A.U. after    1 cycles

 Alpha  occ. eigenvalues --  -88.92237 -88.89939 -88.86406 -88.86335 -19.23213
 Alpha  occ. eigenvalues --  -10.30282  -7.99954  -7.97553  -7.94116  -7.94068
 Alpha  occ. eigenvalues --   -5.96138  -5.95971  -5.95599  -5.93771  -5.93658
 Alpha  occ. eigenvalues --   -5.93109  -5.90383  -5.90345  -5.89976  -5.89934
 Alpha  occ. eigenvalues --   -5.89849  -5.89785  -2.50442  -1.54068  -1.52628
 Alpha  occ. eigenvalues --   -1.51631  -1.13365  -0.78260  -0.75344  -0.71590
 Alpha  occ. eigenvalues --   -0.71115  -0.56608  -0.50890  -0.46113  -0.45867
 Alpha  occ. eigenvalues --   -0.45659  -0.44901  -0.43011  -0.41367  -0.39943
 Alpha  occ. eigenvalues --   -0.36544  -0.33865  -0.32030  -0.31101  -0.30574
 Alpha  occ. eigenvalues --   -0.28100  -0.26363  -0.24828  -0.22275
 Alpha virt. eigenvalues --   -0.12862  -0.10540  -0.08695  -0.02047  -0.01766
 Alpha virt. eigenvalues --   -0.01127  -0.00363   0.00788   0.02042   0.03904
 Alpha virt. eigenvalues --    0.04364   0.06535   0.08361   0.09953   0.12972

 Mulliken charges:
               1
     1  Mo  -0.113729
     2  C    0.234709
     3  O   -0.237793
     4  S   -0.109548
     5  H    0.066489
     6  S   -0.137066
     7  H    0.073351
     8  S   -0.017758
     9  H    0.006390
    10  H    0.112377
    11  S   -0.024194
    12  H    0.140364
    13  H    0.006410
 Sum of Mulliken charges =   0.00000

 Dipole moment (field-independent basis, Debye):
    X=              3.1681    Y=              1.4498    Z=              0.0428  Tot=              3.4844
 Quadrupole moment (field-independent basis, Debye-Ang):
   XX=            -70.4733   YY=            -90.6447   ZZ=            -92.6877
   XY=              4.0480   XZ=              0.9792   YZ=             -2.1214

  Exact polarizability:     139.649       7.865     162.020       0.436      -7.111     139.028
 Approx polarizability:     285.712      27.598     374.486      -4.492     -25.707     281.900

 ******    1 imaginary frequencies (negative Signs) ******

                      1                      2                      3
                      A                      A                      A
 Frequencies --  -1096.4307                67.5866                77.4371
 Red. masses --      1.1157                10.5021                12.9033
 Frc consts  --      0.7902                 0.0283                 0.0456
 IR Inten    --   1750.8273                 1.5138                 0.0905

                      4                      5                      6
                      A                      A                      A
 Frequencies --     94.4242               101.1443               140.0407
 Red. masses --     12.6964                15.5822                 8.1841
 Frc consts  --      0.0667                 0.0939                 0.0946
 IR Inten    --      0.3765                 0.0558                 1.0487

                      7                      8                      9
                      A                      A                      A
 Frequencies --    146.7943               272.4679               283.6009
 Red. masses --     12.0652                17.3216                 1.1336
 Frc consts  --      0.1532                 0.7577                 0.0537
 IR Inten    --      0.3018                 3.6676                 8.3240

                     10                     11                     12
                      A                      A                      A
 Frequencies --    309.0180               329.6414               367.4271
 Red. masses --      9.1679                11.6485                11.3523
 Frc consts  --      0.5158                 0.7458                 0.9030
 IR Inten    --     18.5634                 0.7295                28.8770

                     13                     14                     15
                      A                      A                      A
 Frequencies --    377.3135               425.3575               447.9698
 Red. masses --     17.3373                 1.1696                 1.5695
 Frc consts  --      1.4542                 0.1247                 0.1856
 IR Inten    --     34.4354                22.0112                 4.5721

                     16                     17                     18
                      A                      A                      A
 Frequencies --    449.9946               475.4078               502.0064
 Red. masses --      6.7254                 1.1748                 2.3360
 Frc consts  --      0.8024                 0.1564                 0.3469
 IR Inten    --     15.0103                17.9085                 6.6094

                     19                     20                     21
                      A                      A                      A
 Frequencies --    516.5402               568.0325               625.1868
 Red. masses --      2.5132                 1.1450                 1.4034
 Frc consts  --      0.3951                 0.2177                 0.3232
 IR Inten    --      2.4024                 3.1671                10.5627

                     22                     23                     24
                      A                      A                      A
 Frequencies --    751.3743               771.3683               814.4041
 Red. masses --      1.0538                 1.0621                 1.0362
 Frc consts  --      0.3505                 0.3723                 0.4049
 IR Inten    --      2.7109                 2.3042                 1.0527

                     25                     26                     27
                      A                      A                      A
 Frequencies --   1020.7193              1087.8428              1213.1605
 Red. masses --      1.0491                 1.0196                 1.0128
 Frc consts  --      0.6440                 0.7109                 0.8782
 IR Inten    --     37.4817                64.5289                 4.0874

                     28                     29                     30
                      A                      A                      A
 Frequencies --   1505.3576              2069.0185              2592.0794
 Red. masses --      1.0287                12.8436                 1.0386
 Frc consts  --      1.3735                32.3942                 4.1113
 IR Inten    --     65.3989               852.9886                17.1950

                     31                     32                     33
                      A                      A                      A
 Frequencies --   2632.6105              2638.0610              2671.5344
 Red. masses --      1.0390                 1.0385                 1.0381
 Frc consts  --      4.2426                 4.2580                 4.3655
 IR Inten    --     11.7227                 2.4074                 5.4917

 - Thermochemistry -
 -------------------
 Temperature   298.150 Kelvin.  Pressure   1.00000 Atm.
 Atom     1 has atomic number 42 and mass  97.90550

 Molecular mass:   259.83565 amu.
 Principal axes and moments of inertia in atomic units:
                           1         2         3
     Eigenvalues --  1997.088492487.579482551.22003
           X            0.15328  -0.31243   0.93749
           Y            0.97729   0.18842  -0.09699
           Z           -0.14634   0.93107   0.33421
 This molecule is an asymmetric top.
 Rotational symmetry number  1.
 Warning -- assumption of classical behavior for rotation
           may cause significant error
 Rotational temperatures (Kelvin)      0.04337     0.03482     0.03395
 Rotational constants (GHZ):           0.90369     0.72550     0.70740
    1 imaginary frequencies ignored.
 Zero-point vibrational energy     157577.6 (Joules/Mol)
                                   37.66196 (Kcal/Mol)
 Warning -- explicit consideration of  19 degrees of freedom as
           vibrations may cause significant error
 Vibrational temperatures:     97.24   111.41   135.86   145.52   201.49
          (Kelvin)            211.20   392.02   408.04   444.61   474.28
                              528.65   542.87   611.99   644.53   647.44
                              684.01   722.28   743.19   817.27   899.50
                             1081.06  1109.83  1171.75  1468.59  1565.16
                             1745.47  2165.87  2976.86  3729.42  3787.74
                             3795.58  3843.74

 Zero-point correction=                           0.060018 (Hartree/Particle)
 Thermal correction to Energy=                    0.071734
 Thermal correction to Enthalpy=                  0.072679
 Thermal correction to Gibbs Free Energy=         0.021222
 Sum of electronic and zero-point Energies=          -1777.198288
 Sum of electronic and thermal Energies=             -1777.186572
 Sum of electronic and thermal Enthalpies=           -1777.185628
 Sum of electronic and thermal Free Energies=        -1777.237085

                     E (Thermal)             CV                S
                      KCal/Mol        Cal/Mol-Kelvin    Cal/Mol-Kelvin
 Total                   45.014             40.348            108.300
 Electronic               0.000              0.000              0.000
 Translational            0.889              2.981             42.564
 Rotational               0.889              2.981             30.917
 Vibrational             43.237             34.387             34.818
 Vibration     1          0.598              1.970              4.222
 Vibration     2          0.599              1.964              3.955
 Vibration     3          0.603              1.953              3.566
 Vibration     4          0.604              1.948              3.432
 Vibration     5          0.615              1.913              2.803
 Vibration     6          0.617              1.906              2.713
 Vibration     7          0.675              1.724              1.581
 Vibration     8          0.682              1.704              1.512
 Vibration     9          0.698              1.657              1.368
 Vibration    10          0.712              1.616              1.262
 Vibration    11          0.740              1.539              1.091
 Vibration    12          0.748              1.518              1.050
 Vibration    13          0.787              1.415              0.874
 Vibration    14          0.807              1.365              0.802
 Vibration    15          0.809              1.361              0.796
 Vibration    16          0.832              1.305              0.723
 Vibration    17          0.857              1.246              0.653
 Vibration    18          0.872              1.213              0.618
 Vibration    19          0.924              1.100              0.508

                           ! Non-Optimized Parameters !
 Normal termination of Gaussian 16 at Sat Jul 30 18:00:44 2022.
