 Gaussian 16, Revision C.01,
 Gaussian 16:  ES64L-G16RevC.01  3-Jul-2019

 -----------------------------------------------------------
 # opt=(calcfc,ts,noeigen) freq b3lyp/gen nosymm pseudo=read
 -----------------------------------------------------------

 -------------------
 Title Card Required
 -------------------
 Symbolic Z-matrix:
 Charge =  0 Multiplicity = 1

 SCF Done:  E(RB3LYP) =  -1662.75284465     A.U. after   17 cycles
 SCF Done:  E(RB3LYP) =  -1662.75280409     A.U. after   15 cycles
 SCF Done:  E(RB3LYP) =  -1662.75284704     A.U. after   15 cycles
 SCF Done:  E(RB3LYP) =  -1662.75284758     A.U. after   10 cycles
 SCF Done:  E(RB3LYP) =  -1662.75278523     A.U. after   15 cycles
 SCF Done:  E(RB3LYP) =  -1662.75284931     A.U. after   14 cycles
 SCF Done:  E(RB3LYP) =  -1662.75285006     A.U. after   11 cycles
 SCF Done:  E(RB3LYP) =  -1662.75285015     A.U. after   10 cycles
 SCF Done:  E(RB3LYP) =  -1662.75285022     A.U. after   11 cycles
 Optimization completed on the basis of negligible forces.
    -- Stationary point found.
 Normal termination of Gaussian 16 at Mon Oct 17 12:31:46 2022.

 ------------------------------------------------------------------
 #N Geom=AllCheck Guess=TCheck SCRF=Check GenChk RB3LYP/ChkBas Freq
 ------------------------------------------------------------------

 Structure from the checkpoint file:  "24_18_12_Mo_SH_4_ts.chk"
 -------------------
 Title Card Required
 -------------------
 Charge =  0 Multiplicity = 1

                          Input orientation:
 ---------------------------------------------------------------------
 Center     Atomic      Atomic             Coordinates (Angstroms)
 Number     Number       Type             X           Y           Z
 ---------------------------------------------------------------------
      1         42           0        2.612500    0.886408    0.044328
      2         16           0        0.655366    0.122041   -0.483713
      3          1           0        0.289029   -0.378910    1.115680
      4         16           0        2.383864    0.347343    2.129986
      5          1           0        0.813055   -0.307247    1.911105
      6         16           0        2.680224    3.192522   -0.248519
      7          1           0        1.492430    3.561459    0.276486
      8         16           0        4.318189   -0.362254   -0.925285
      9          1           0        4.069276   -1.589069   -0.419727
 ---------------------------------------------------------------------

 SCF Done:  E(RB3LYP) =  -1662.75285022     A.U. after    1 cycles

 Alpha  occ. eigenvalues --  -88.88479 -88.88470 -88.88282 -88.88282  -7.96354
 Alpha  occ. eigenvalues --   -7.96346  -7.96281  -7.96280  -5.92530  -5.92528
 Alpha  occ. eigenvalues --   -5.92438  -5.92430  -5.92265  -5.92256  -5.92223
 Alpha  occ. eigenvalues --   -5.92222  -5.92166  -5.92157  -5.91892  -5.91891
 Alpha  occ. eigenvalues --   -2.54969  -1.58107  -1.57004  -1.56829  -0.74628
 Alpha  occ. eigenvalues --   -0.73799  -0.72569  -0.69824  -0.48123  -0.44357
 Alpha  occ. eigenvalues --   -0.43998  -0.36365  -0.36113  -0.34713  -0.34258
 Alpha  occ. eigenvalues --   -0.33436  -0.31223  -0.31119  -0.27920  -0.27658
 Alpha  occ. eigenvalues --   -0.26563
 Alpha virt. eigenvalues --   -0.13776  -0.13108  -0.10401  -0.07851  -0.07240
 Alpha virt. eigenvalues --   -0.00217   0.00139   0.02743   0.02804   0.06472
 Alpha virt. eigenvalues --    0.07044   0.13122   0.16216   0.17665   0.19117

 Mulliken charges:
               1
     1  Mo   0.281334
     2  S   -0.080992
     3  H   -0.003346
     4  S   -0.080689
     5  H   -0.003378
     6  S   -0.170776
     7  H    0.114310
     8  S   -0.170787
     9  H    0.114325
 Sum of Mulliken charges =   0.00000

 Dipole moment (field-independent basis, Debye):
    X=             -0.4954    Y=             -0.2965    Z=              0.3589  Tot=              0.6798
 Quadrupole moment (field-independent basis, Debye-Ang):
   XX=            -81.3103   YY=            -73.8568   ZZ=            -81.6297
   XY=             -5.0179   XZ=             -0.4221   YZ=              0.5797

  Exact polarizability:     128.352       1.390     128.200     -11.786      -5.883     116.079
 Approx polarizability:     321.264      35.052     263.716     -24.817     -31.240     298.805

 ******    1 imaginary frequencies (negative Signs) ******

                      1                      2                      3
                      A                      A                      A
 Frequencies --  -1069.3296                39.4569               102.4831
 Red. masses --      1.1245                 1.6907                 3.1527
 Frc consts  --      0.7576                 0.0016                 0.0195
 IR Inten    --    101.5384                 0.1361                13.6872

                      4                      5                      6
                      A                      A                      A
 Frequencies --    108.8933               154.0272               187.3875
 Red. masses --     11.3698                 9.9330                 2.6455
 Frc consts  --      0.0794                 0.1388                 0.0547
 IR Inten    --      0.2882                 0.2255                 0.2022

                      7                      8                      9
                      A                      A                      A
 Frequencies --    220.5259               320.5683               383.5405
 Red. masses --      1.4488                11.6791                 6.2870
 Frc consts  --      0.0415                 0.7071                 0.5449
 IR Inten    --     39.7693                10.8483                66.5680

                     10                     11                     12
                      A                      A                      A
 Frequencies --    397.8134               463.6662               487.4041
 Red. masses --     14.3033                 1.2839                23.4316
 Frc consts  --      1.3337                 0.1626                 3.2797
 IR Inten    --      5.8270                 2.7429                22.2072

                     13                     14                     15
                      A                      A                      A
 Frequencies --    523.7780               568.3018               603.8577
 Red. masses --      4.2131                 1.0626                 1.2979
 Frc consts  --      0.6810                 0.2022                 0.2788
 IR Inten    --     45.7580                26.5499                 4.7090

                     16                     17                     18
                      A                      A                      A
 Frequencies --   1001.4988              1046.1218              1183.0149
 Red. masses --      1.0581                 1.0111                 1.0140
 Frc consts  --      0.6253                 0.6519                 0.8361
 IR Inten    --     39.5047                 0.0057                 8.9241

                     19                     20                     21
                      A                      A                      A
 Frequencies --   1649.0401              2677.8301              2678.8643
 Red. masses --      1.0207                 1.0381                 1.0381
 Frc consts  --      1.6354                 4.3858                 4.3891
 IR Inten    --      0.3283                 4.2005                 2.4320

 - Thermochemistry -
 -------------------
 Temperature   298.150 Kelvin.  Pressure   1.00000 Atm.
 Atom     1 has atomic number 42 and mass  97.90550

 Molecular mass:   229.82509 amu.
 Principal axes and moments of inertia in atomic units:
                           1         2         3
     Eigenvalues --  1456.032241526.330341853.45433
           X           -0.43378   0.73248   0.52470
           Y            0.89036   0.43777   0.12495
           Z            0.13818  -0.52138   0.84207
 This molecule is an asymmetric top.
 Rotational symmetry number  1.
 Warning -- assumption of classical behavior for rotation
           may cause significant error
 Rotational temperatures (Kelvin)      0.05949     0.05675     0.04673
 Rotational constants (GHZ):           1.23949     1.18241     0.97372
    1 imaginary frequencies ignored.
 Zero-point vibrational energy      88512.1 (Joules/Mol)
                                   21.15491 (Kcal/Mol)
 Warning -- explicit consideration of  14 degrees of freedom as
           vibrations may cause significant error
 Vibrational temperatures:     56.77   147.45   156.67   221.61   269.61
          (Kelvin)            317.29   461.23   551.83   572.36   667.11
                              701.27   753.60   817.66   868.82  1440.93
                             1505.14  1702.09  2372.60  3852.80  3854.29

 Zero-point correction=                           0.033712 (Hartree/Particle)
 Thermal correction to Energy=                    0.042746
 Thermal correction to Enthalpy=                  0.043690
 Thermal correction to Gibbs Free Energy=        -0.002556
 Sum of electronic and zero-point Energies=          -1662.719138
 Sum of electronic and thermal Energies=             -1662.710104
 Sum of electronic and thermal Enthalpies=           -1662.709160
 Sum of electronic and thermal Free Energies=        -1662.755406

                     E (Thermal)             CV                S
                      KCal/Mol        Cal/Mol-Kelvin    Cal/Mol-Kelvin
 Total                   26.823             28.908             97.332
 Electronic               0.000              0.000              0.000
 Translational            0.889              2.981             42.198
 Rotational               0.889              2.981             29.800
 Vibrational             25.046             22.946             25.334
 Vibration     1          0.594              1.981              5.286
 Vibration     2          0.605              1.947              3.407
 Vibration     3          0.606              1.942              3.289
 Vibration     4          0.620              1.898              2.622
 Vibration     5          0.632              1.857              2.254
 Vibration     6          0.647              1.810              1.955
 Vibration     7          0.706              1.634              1.307
 Vibration     8          0.753              1.505              1.025
 Vibration     9          0.764              1.475              0.971
 Vibration    10          0.821              1.331              0.756
 Vibration    11          0.843              1.278              0.690
 Vibration    12          0.879              1.197              0.601
 Vibration    13          0.924              1.100              0.508
 Vibration    14          0.962              1.024              0.443

 Optimization completed on the basis of negligible forces.
    -- Stationary point found.
 Normal termination of Gaussian 16 at Mon Oct 17 12:32:07 2022.
