 Gaussian 16, Revision C.01,
 Gaussian 16:  ES64L-G16RevC.01  3-Jul-2019

 -----------------------------------------------------------
 # opt=(calcfc,ts,noeigen) freq b3lyp/gen nosymm pseudo=read
 -----------------------------------------------------------

 -------------------
 Title Card Required
 -------------------
 Symbolic Z-matrix:
 Charge =  0 Multiplicity = 1

 SCF Done:  E(RB3LYP) =  -2641.25481799     A.U. after   25 cycles
 SCF Done:  E(RB3LYP) =  -2641.26602583     A.U. after   18 cycles
 SCF Done:  E(RB3LYP) =  -2641.27002487     A.U. after   18 cycles
 SCF Done:  E(RB3LYP) =  -2641.27052088     A.U. after   18 cycles
 SCF Done:  E(RB3LYP) =  -2641.27081472     A.U. after   17 cycles
 SCF Done:  E(RB3LYP) =  -2641.27111352     A.U. after   17 cycles
 SCF Done:  E(RB3LYP) =  -2641.27123633     A.U. after   17 cycles
 SCF Done:  E(RB3LYP) =  -2641.27124084     A.U. after   16 cycles
 SCF Done:  E(RB3LYP) =  -2641.27062720     A.U. after   18 cycles
 SCF Done:  E(RB3LYP) =  -2641.27186042     A.U. after   18 cycles
 SCF Done:  E(RB3LYP) =  -2641.28749740     A.U. after   13 cycles
 SCF Done:  E(RB3LYP) =  -2641.28749977     A.U. after   12 cycles
 SCF Done:  E(RB3LYP) =  -2641.28750015     A.U. after   13 cycles
 SCF Done:  E(RB3LYP) =  -2641.28750232     A.U. after   12 cycles
 SCF Done:  E(RB3LYP) =  -2641.28750295     A.U. after   12 cycles
 SCF Done:  E(RB3LYP) =  -2641.28750302     A.U. after   11 cycles
 SCF Done:  E(RB3LYP) =  -2641.28750307     A.U. after   10 cycles
 SCF Done:  E(RB3LYP) =  -2641.28750305     A.U. after   10 cycles
 SCF Done:  E(RB3LYP) =  -2641.28750308     A.U. after   10 cycles
 Optimization completed.
    -- Stationary point found.
 Normal termination of Gaussian 16 at Mon Oct 24 18:43:15 2022.

 ------------------------------------------------------------------
 #N Geom=AllCheck Guess=TCheck SCRF=Check GenChk RB3LYP/ChkBas Freq
 ------------------------------------------------------------------

 Structure from the checkpoint file:  "MoSH2S2_MoCO_S-end_H2S_2_ts.chk"
 -------------------
 Title Card Required
 -------------------
 Charge =  0 Multiplicity = 1

                          Input orientation:
 ---------------------------------------------------------------------
 Center     Atomic      Atomic             Coordinates (Angstroms)
 Number     Number       Type             X           Y           Z
 ---------------------------------------------------------------------
      1         42           0        0.184551    2.265331   11.276670
      2         16           0        2.501666    2.467001   11.129504
      3         16           0       -0.489571    4.024020   10.074261
      4         16           0       -0.521745    0.363086   10.327547
      5         16           0       -0.762290    2.638743   13.371156
      6          1           0       -0.652441    1.373390   13.842561
      7          1           0        2.789223    1.257057   11.669715
      8         42           0       -1.431845    2.130687    9.004758
      9          6           0       -1.971774    3.527257    7.601736
     10          8           0       -2.241103    4.311537    6.801303
     11         16           0       -3.658309    1.978865    9.738370
     12          1           0       -4.165645    0.883756    8.624460
     13          1           0       -3.627440    0.970592   10.644063
     14         16           0       -2.118708    0.576541    7.248179
     15          1           0       -1.772517   -0.640150    7.721144
     16          1           0       -3.633051    0.412557    7.822532
 ---------------------------------------------------------------------

 SCF Done:  E(RB3LYP) =  -2641.28750308     A.U. after    1 cycles

 Alpha  occ. eigenvalues --  -88.91538 -88.90884 -88.88623 -88.87435 -88.87359
 Alpha  occ. eigenvalues --  -88.87339 -19.24113 -10.31302  -7.99025  -7.98442
 Alpha  occ. eigenvalues --   -7.96350  -7.95286  -7.95208  -7.95174  -5.95204
 Alpha  occ. eigenvalues --   -5.95098  -5.94672  -5.94647  -5.94526  -5.94041
 Alpha  occ. eigenvalues --   -5.92369  -5.92304  -5.92226  -5.91558  -5.91483
 Alpha  occ. eigenvalues --   -5.91200  -5.91178  -5.91175  -5.91108  -5.90994
 Alpha  occ. eigenvalues --   -5.90949  -5.90854  -2.53772  -2.49621  -1.56811
 Alpha  occ. eigenvalues --   -1.56125  -1.55523  -1.52542  -1.51861  -1.51561
 Alpha  occ. eigenvalues --   -1.14283  -0.77824  -0.75559  -0.73389  -0.72726
 Alpha  occ. eigenvalues --   -0.70812  -0.69948  -0.57358  -0.50324  -0.47049
 Alpha  occ. eigenvalues --   -0.46504  -0.46323  -0.43802  -0.42894  -0.42710
 Alpha  occ. eigenvalues --   -0.42543  -0.38025  -0.36332  -0.36096  -0.35312
 Alpha  occ. eigenvalues --   -0.34771  -0.33875  -0.33196  -0.32058  -0.31707
 Alpha  occ. eigenvalues --   -0.31014  -0.29982  -0.29748  -0.26427  -0.24514
 Alpha  occ. eigenvalues --   -0.22756  -0.21772
 Alpha virt. eigenvalues --   -0.13475  -0.11701  -0.10666  -0.10172  -0.08644
 Alpha virt. eigenvalues --   -0.07583  -0.06433  -0.01999  -0.01462  -0.01219
 Alpha virt. eigenvalues --   -0.00414   0.00291   0.01081   0.01971   0.02799

 Mulliken charges:
               1
     1  Mo   0.125050
     2  S   -0.131882
     3  S   -0.019106
     4  S   -0.071118
     5  S   -0.143843
     6  H    0.085038
     7  H    0.085303
     8  Mo  -0.210869
     9  C    0.209761
    10  O   -0.222775
    11  S    0.057948
    12  H   -0.003224
    13  H    0.113391
    14  S    0.001775
    15  H    0.120965
    16  H    0.003585
 Sum of Mulliken charges =  -0.00000

 Dipole moment (field-independent basis, Debye):
    X=             -1.1243    Y=             -3.7444    Z=              0.5006  Tot=              3.9415
 Quadrupole moment (field-independent basis, Debye-Ang):
   XX=           -135.4606   YY=           -152.9255   ZZ=           -130.6189
   XY=              1.7514   XZ=            -10.8842   YZ=            -39.2656

  Exact polarizability:     257.239      18.745     191.241      63.429      13.845     272.653
 Approx polarizability:     604.565      52.686     479.852     194.380      27.562     683.343

 ******    1 imaginary frequencies (negative Signs) ******

                      1                      2                      3
                      A                      A                      A
 Frequencies --  -1462.0858                44.2817                52.7576
 Red. masses --      1.0430                11.3028                14.4185
 Frc consts  --      1.3136                 0.0131                 0.0236
 IR Inten    --   2881.5696                 0.3170                 0.0167

                      4                      5                      6
                      A                      A                      A
 Frequencies --     72.6032                89.7780                99.6214
 Red. masses --     11.9659                10.4387                14.1246
 Frc consts  --      0.0372                 0.0496                 0.0826
 IR Inten    --      0.1989                 1.0258                 0.3098

                      7                      8                      9
                      A                      A                      A
 Frequencies --    102.4627               105.1646               123.1123
 Red. masses --     12.8000                16.6863                 5.9565
 Frc consts  --      0.0792                 0.1087                 0.0532
 IR Inten    --      0.3284                 0.3943                 0.4817

                     10                     11                     12
                      A                      A                      A
 Frequencies --    139.1778               189.2278               194.9170
 Red. masses --     11.3560                13.9794                13.6471
 Frc consts  --      0.1296                 0.2949                 0.3055
 IR Inten    --      3.2516                 3.3884                 0.5549

                     13                     14                     15
                      A                      A                      A
 Frequencies --    216.7876               277.9312               292.5911
 Red. masses --      1.3203                15.1668                 4.0800
 Frc consts  --      0.0366                 0.6903                 0.2058
 IR Inten    --      7.8782                21.5131                 5.4696

                     16                     17                     18
                      A                      A                      A
 Frequencies --    312.9703               315.6722               326.6484
 Red. masses --      5.1480                 1.7928                 1.2470
 Frc consts  --      0.2971                 0.1053                 0.0784
 IR Inten    --      2.0812                 2.5061                10.8386

                     19                     20                     21
                      A                      A                      A
 Frequencies --    342.7265               357.3678               360.3665
 Red. masses --      7.6900                27.3147                23.5755
 Frc consts  --      0.5322                 2.0553                 1.8039
 IR Inten    --     12.3978                 0.2444                14.6460

                     22                     23                     24
                      A                      A                      A
 Frequencies --    384.7599               403.2331               448.9145
 Red. masses --     21.7043                11.9041                14.9448
 Frc consts  --      1.8931                 1.1404                 1.7745
 IR Inten    --     51.5297                36.5989                24.1287

                     25                     26                     27
                      A                      A                      A
 Frequencies --    455.8865               477.7115               496.8924
 Red. masses --     20.4410                10.8652                12.8847
 Frc consts  --      2.5030                 1.4609                 1.8743
 IR Inten    --     12.4090                 6.0098                 2.9332

                     28                     29                     30
                      A                      A                      A
 Frequencies --    563.0100               610.8243               640.0156
 Red. masses --      1.0582                 1.0642                 1.0635
 Frc consts  --      0.1976                 0.2339                 0.2567
 IR Inten    --      9.3186                 2.5917                10.1623

                     31                     32                     33
                      A                      A                      A
 Frequencies --    645.2722               706.9252               904.0484
 Red. masses --      1.0995                 1.0781                 1.0297
 Frc consts  --      0.2697                 0.3174                 0.4958
 IR Inten    --     21.2212                10.4505                 3.8201

                     34                     35                     36
                      A                      A                      A
 Frequencies --   1049.2035              1184.5051              1265.4616
 Red. masses --      1.0319                 1.0328                 1.0284
 Frc consts  --      0.6693                 0.8538                 0.9703
 IR Inten    --      1.0605                85.9620                30.9519

                     37                     38                     39
                      A                      A                      A
 Frequencies --   1283.1328              2074.3831              2606.1562
 Red. masses --      1.0217                13.3116                 1.0386
 Frc consts  --      0.9911                33.7489                 4.1561
 IR Inten    --     40.8758              1110.3171                13.7158

                     40                     41                     42
                      A                      A                      A
 Frequencies --   2626.3728              2632.2996              2664.6591
 Red. masses --      1.0380                 1.0381                 1.0387
 Frc consts  --      4.2184                 4.2382                 4.3454
 IR Inten    --      1.8854                 3.1791                 0.7810

 - Thermochemistry -
 -------------------
 Temperature   298.150 Kelvin.  Pressure   1.00000 Atm.
 Atom     1 has atomic number 42 and mass  97.90550

 Molecular mass:   421.68530 amu.
 Principal axes and moments of inertia in atomic units:
                           1         2         3
     Eigenvalues --  3037.160357264.960427443.50134
           X            0.61872   0.67620  -0.39992
           Y            0.07794   0.45371   0.88774
           Z            0.78173  -0.58043   0.22801
 This molecule is an asymmetric top.
 Rotational symmetry number  1.
 Warning -- assumption of classical behavior for rotation
           may cause significant error
 Rotational temperatures (Kelvin)      0.02852     0.01192     0.01164
 Rotational constants (GHZ):           0.59422     0.24842     0.24246
    1 imaginary frequencies ignored.
 Zero-point vibrational energy     168313.6 (Joules/Mol)
                                   40.22791 (Kcal/Mol)
 Warning -- explicit consideration of  28 degrees of freedom as
           vibrations may cause significant error
 Vibrational temperatures:     63.71    75.91   104.46   129.17   143.33
          (Kelvin)            147.42   151.31   177.13   200.25   272.26
                              280.44   311.91   399.88   420.97   450.29
                              454.18   469.97   493.11   514.17   518.49
                              553.58   580.16   645.89   655.92   687.32
                              714.92   810.05   878.84   920.84   928.40
                             1017.11  1300.72  1509.57  1704.24  1820.72
                             1846.14  2984.57  3749.68  3778.76  3787.29
                             3833.85

 Zero-point correction=                           0.064107 (Hartree/Particle)
 Thermal correction to Energy=                    0.080997
 Thermal correction to Enthalpy=                  0.081942
 Thermal correction to Gibbs Free Energy=         0.017725
 Sum of electronic and zero-point Energies=          -2641.223396
 Sum of electronic and thermal Energies=             -2641.206506
 Sum of electronic and thermal Enthalpies=           -2641.205561
 Sum of electronic and thermal Free Energies=        -2641.269778

                     E (Thermal)             CV                S
                      KCal/Mol        Cal/Mol-Kelvin    Cal/Mol-Kelvin
 Total                   50.827             56.491            135.154
 Electronic               0.000              0.000              0.000
 Translational            0.889              2.981             44.008
 Rotational               0.889              2.981             33.462
 Vibrational             49.049             50.530             57.684
 Vibration     1          0.595              1.980              5.058
 Vibration     2          0.596              1.977              4.711
 Vibration     3          0.599              1.967              4.082
 Vibration     4          0.602              1.956              3.665
 Vibration     5          0.604              1.949              3.462
 Vibration     6          0.605              1.947              3.407
 Vibration     7          0.605              1.945              3.356
 Vibration     8          0.610              1.930              3.051
 Vibration     9          0.615              1.914              2.815
 Vibration    10          0.633              1.855              2.235
 Vibration    11          0.636              1.847              2.181
 Vibration    12          0.646              1.815              1.986
 Vibration    13          0.679              1.714              1.546
 Vibration    14          0.688              1.688              1.459
 Vibration    15          0.701              1.649              1.347
 Vibration    16          0.703              1.644              1.332
 Vibration    17          0.710              1.622              1.277
 Vibration    18          0.722              1.590              1.199
 Vibration    19          0.733              1.560              1.134
 Vibration    20          0.735              1.554              1.121
 Vibration    21          0.754              1.503              1.020
 Vibration    22          0.769              1.463              0.951
 Vibration    23          0.808              1.363              0.799
 Vibration    24          0.814              1.348              0.778
 Vibration    25          0.834              1.299              0.716
 Vibration    26          0.852              1.257              0.666
 Vibration    27          0.919              1.111              0.518
 Vibration    28          0.970              1.009              0.431

 Optimization completed.
    -- Stationary point found.
 Normal termination of Gaussian 16 at Mon Oct 24 18:43:44 2022.
