 Gaussian 16, Revision C.01,
 Gaussian 16:  ES64L-G16RevC.01  3-Jul-2019

 -----------------------------------------------------------
 # opt=(calcfc,ts,noeigen) freq b3lyp/gen nosymm pseudo=read
 -----------------------------------------------------------

 -------------------
 Title Card Required
 -------------------
 Symbolic Z-matrix:
 Charge =  0 Multiplicity = 1

 SCF Done:  E(RB3LYP) =  -2993.73446390     A.U. after   24 cycles
 SCF Done:  E(RB3LYP) =  -2993.73851036     A.U. after   19 cycles
 SCF Done:  E(RB3LYP) =  -2993.74025003     A.U. after   18 cycles
 SCF Done:  E(RB3LYP) =  -2993.74042738     A.U. after   18 cycles
 SCF Done:  E(RB3LYP) =  -2993.74045556     A.U. after   17 cycles
 SCF Done:  E(RB3LYP) =  -2993.74046132     A.U. after   15 cycles
 SCF Done:  E(RB3LYP) =  -2993.74046145     A.U. after   14 cycles
 SCF Done:  E(RB3LYP) =  -2993.74046150     A.U. after   13 cycles
 Optimization completed.
    -- Stationary point found.
 Normal termination of Gaussian 16 at Tue Nov  1 09:56:44 2022.

 ------------------------------------------------------------------
 #N Geom=AllCheck Guess=TCheck SCRF=Check GenChk RB3LYP/ChkBas Freq
 ------------------------------------------------------------------

 Structure from the checkpoint file:  "/home/chesagar/scratch/Gau-81473.chk"
 -------------------
 Title Card Required
 -------------------
 Charge =  0 Multiplicity = 1

                          Input orientation:
 ---------------------------------------------------------------------
 Center     Atomic      Atomic             Coordinates (Angstroms)
 Number     Number       Type             X           Y           Z
 ---------------------------------------------------------------------
      1         42           0       -0.057315    2.165301   10.824678
      2         16           0        0.384493    4.486046   10.738168
      3         16           0       -1.715195    1.873467   12.423859
      4         16           0       -1.072865    1.428885    8.710775
      5         16           0        1.876705    0.854368   10.532150
      6          1           0        1.562593   -0.055225    9.586704
      7         42           0       -2.716263    1.871240   10.338914
      8         16           0       -4.732534    0.722403   10.037211
      9          1           0       -5.643814    1.649735    9.656894
     10         16           0       -3.654062    4.059016    9.838833
     11          1           0       -4.416793    3.923399    8.714261
     12          1           0        1.581224    4.771788    9.680211
     13         42           0       -1.258556    3.750229    9.192670
     14         16           0        0.396227    4.378766    7.489026
     15          1           0        0.982791    3.232812    7.087981
     16          1           0        1.502108    4.720145    8.609404
 ---------------------------------------------------------------------

 SCF Done:  E(RB3LYP) =  -2993.74046150     A.U. after    1 cycles

 Alpha  occ. eigenvalues --  -88.91698 -88.90722 -88.89945 -88.89859 -88.87122
 Alpha  occ. eigenvalues --  -88.86474 -88.85995  -7.99430  -7.98344  -7.97592
 Alpha  occ. eigenvalues --   -7.97535  -7.94928  -7.94311  -7.93743  -5.95638
 Alpha  occ. eigenvalues --   -5.95446  -5.95066  -5.94599  -5.94171  -5.94132
 Alpha  occ. eigenvalues --   -5.93811  -5.93605  -5.93525  -5.93495  -5.93349
 Alpha  occ. eigenvalues --   -5.93333  -5.90891  -5.90878  -5.90854  -5.90589
 Alpha  occ. eigenvalues --   -5.90172  -5.90022  -5.90019  -5.89546  -5.89523
 Alpha  occ. eigenvalues --   -2.53162  -2.52373  -2.51813  -1.57577  -1.56285
 Alpha  occ. eigenvalues --   -1.55502  -1.55131  -1.54379  -1.54232  -1.53662
 Alpha  occ. eigenvalues --   -1.53405  -1.52855  -0.78263  -0.75008  -0.73947
 Alpha  occ. eigenvalues --   -0.73249  -0.71915  -0.71146  -0.69638  -0.51021
 Alpha  occ. eigenvalues --   -0.45749  -0.44608  -0.42929  -0.41492  -0.39377
 Alpha  occ. eigenvalues --   -0.38836  -0.38519  -0.38373  -0.37048  -0.36059
 Alpha  occ. eigenvalues --   -0.34418  -0.34138  -0.33826  -0.32882  -0.32514
 Alpha  occ. eigenvalues --   -0.31935  -0.30740  -0.30007  -0.29240  -0.27257
 Alpha  occ. eigenvalues --   -0.26447  -0.25883  -0.25436  -0.23349  -0.20868
 Alpha virt. eigenvalues --   -0.14253  -0.12734  -0.11438  -0.11281  -0.10099
 Alpha virt. eigenvalues --   -0.09787  -0.09496  -0.07795  -0.07304  -0.06653
 Alpha virt. eigenvalues --   -0.04648  -0.02294  -0.01280   0.00259   0.00960

 Mulliken charges:
               1
     1  Mo   0.054609
     2  S   -0.026859
     3  S   -0.122924
     4  S    0.052598
     5  S   -0.179833
     6  H    0.091920
     7  Mo   0.077138
     8  S   -0.161448
     9  H    0.066012
    10  S   -0.066898
    11  H    0.076518
    12  H   -0.006522
    13  Mo   0.004247
    14  S   -0.026929
    15  H    0.138761
    16  H    0.029611
 Sum of Mulliken charges =  -0.00000

 Dipole moment (field-independent basis, Debye):
    X=              0.8906    Y=              2.4711    Z=             -3.7105  Tot=              4.5462
 Quadrupole moment (field-independent basis, Debye-Ang):
   XX=           -168.3173   YY=           -152.6668   ZZ=           -238.2971
   XY=             -5.3882   XZ=             13.5646   YZ=             15.0201

  Exact polarizability:     354.532      29.477     241.873     -10.909     -32.466     225.505
 Approx polarizability:     928.548     110.619     658.702      -8.440    -129.290     616.228

 ******    1 imaginary frequencies (negative Signs) ******

                      1                      2                      3
                      A                      A                      A
 Frequencies --  -1450.1789                40.4149                47.3497
 Red. masses --      1.0490                12.5826                14.6701
 Frc consts  --      1.2998                 0.0121                 0.0194
 IR Inten    --   2339.8360                 0.0112                 0.0950

                      4                      5                      6
                      A                      A                      A
 Frequencies --     54.1855                76.7595               100.2331
 Red. masses --     16.7345                11.7851                11.0779
 Frc consts  --      0.0289                 0.0409                 0.0656
 IR Inten    --      0.8579                 0.7988                 0.4484

                      7                      8                      9
                      A                      A                      A
 Frequencies --    120.6096               123.6927               142.8041
 Red. masses --     10.4890                12.2366                19.4402
 Frc consts  --      0.0899                 0.1103                 0.2336
 IR Inten    --      0.7024                 1.6083                 0.9088

                     10                     11                     12
                      A                      A                      A
 Frequencies --    168.6623               195.1248               218.5612
 Red. masses --     22.1329                11.8060                 5.0160
 Frc consts  --      0.3710                 0.2648                 0.1412
 IR Inten    --      0.9573                 3.5804                 6.3053

                     13                     14                     15
                      A                      A                      A
 Frequencies --    230.2431               239.3743               250.0002
 Red. masses --      3.9970                 3.1141                 5.0416
 Frc consts  --      0.1248                 0.1051                 0.1857
 IR Inten    --      8.4425                 8.6974                 1.2256

                     16                     17                     18
                      A                      A                      A
 Frequencies --    261.5460               277.7504               290.0795
 Red. masses --     12.9134                 5.5496                18.0035
 Frc consts  --      0.5205                 0.2522                 0.8926
 IR Inten    --      6.2388                 1.2486                 0.9956

                     19                     20                     21
                      A                      A                      A
 Frequencies --    311.9035               332.5863               350.3374
 Red. masses --     15.9765                 9.9625                 6.6109
 Frc consts  --      0.9157                 0.6493                 0.4781
 IR Inten    --      5.3464                 3.4413                55.5024

                     22                     23                     24
                      A                      A                      A
 Frequencies --    351.0497               357.2419               367.5643
 Red. masses --      4.5135                 2.7391                 5.4069
 Frc consts  --      0.3277                 0.2060                 0.4304
 IR Inten    --     23.8604                 8.6439                31.0396

                     25                     26                     27
                      A                      A                      A
 Frequencies --    393.5923               419.4478               435.2719
 Red. masses --      1.3196                10.6643                17.4728
 Frc consts  --      0.1204                 1.1054                 1.9505
 IR Inten    --      6.4589                27.4721                 5.2090

                     28                     29                     30
                      A                      A                      A
 Frequencies --    446.8088               531.4131               603.3868
 Red. masses --     18.0070                 1.1052                 1.0934
 Frc consts  --      2.1180                 0.1839                 0.2345
 IR Inten    --     25.3040                13.0961                 8.9177

                     31                     32                     33
                      A                      A                      A
 Frequencies --    606.8126               637.6324               703.9380
 Red. masses --      1.0732                 1.0751                 1.0611
 Frc consts  --      0.2328                 0.2575                 0.3098
 IR Inten    --     14.3972                28.8999                 0.8529

                     34                     35                     36
                      A                      A                      A
 Frequencies --    733.0461              1041.6150              1177.2208
 Red. masses --      1.0528                 1.0264                 1.0145
 Frc consts  --      0.3333                 0.6561                 0.8283
 IR Inten    --      6.6297                 2.0171                 1.1949

                     37                     38                     39
                      A                      A                      A
 Frequencies --   1241.3158              1312.8687              2499.7914
 Red. masses --      1.0265                 1.0379                 1.0383
 Frc consts  --      0.9319                 1.0540                 3.8228
 IR Inten    --     22.0451                70.1890                54.7983

                     40                     41                     42
                      A                      A                      A
 Frequencies --   2617.4614              2674.6287              2686.8629
 Red. masses --      1.0385                 1.0385                 1.0386
 Frc consts  --      4.1919                 4.3772                 4.4178
 IR Inten    --     23.2617                 0.5999                 0.4484

 - Thermochemistry -
 -------------------
 Temperature   298.150 Kelvin.  Pressure   1.00000 Atm.
 Atom     1 has atomic number 42 and mass  97.90550

 Molecular mass:   523.56795 amu.
 Principal axes and moments of inertia in atomic units:
                           1         2         3
     Eigenvalues --  4788.510416817.704268884.04658
           X            0.95328  -0.29167  -0.07864
           Y            0.27431   0.72676   0.62974
           Z           -0.12652  -0.62189   0.77282
 This molecule is an asymmetric top.
 Rotational symmetry number  1.
 Warning -- assumption of classical behavior for rotation
           may cause significant error
 Rotational temperatures (Kelvin)      0.01809     0.01270     0.00975
 Rotational constants (GHZ):           0.37689     0.26471     0.20314
    1 imaginary frequencies ignored.
 Zero-point vibrational energy     153547.8 (Joules/Mol)
                                   36.69881 (Kcal/Mol)
 Warning -- explicit consideration of  30 degrees of freedom as
           vibrations may cause significant error
 Vibrational temperatures:     58.15    68.13    77.96   110.44   144.21
          (Kelvin)            173.53   177.97   205.46   242.67   280.74
                              314.46   331.27   344.41   359.69   376.31
                              399.62   417.36   448.76   478.52   504.06
                              505.08   513.99   528.84   566.29   603.49
                              626.26   642.86   764.58   868.14   873.07
                              917.41  1012.81  1054.69  1498.65  1693.76
                             1785.98  1888.93  3596.64  3765.94  3848.19
                             3865.80

 Zero-point correction=                           0.058483 (Hartree/Particle)
 Thermal correction to Energy=                    0.076256
 Thermal correction to Enthalpy=                  0.077200
 Thermal correction to Gibbs Free Energy=         0.010777
 Sum of electronic and zero-point Energies=          -2993.681978
 Sum of electronic and thermal Energies=             -2993.664205
 Sum of electronic and thermal Enthalpies=           -2993.663261
 Sum of electronic and thermal Free Energies=        -2993.729684

                     E (Thermal)             CV                S
                      KCal/Mol        Cal/Mol-Kelvin    Cal/Mol-Kelvin
 Total                   47.851             59.436            139.799
 Electronic               0.000              0.000              0.000
 Translational            0.889              2.981             44.653
 Rotational               0.889              2.981             34.027
 Vibrational             46.074             53.475             61.119
 Vibration     1          0.594              1.981              5.239
 Vibration     2          0.595              1.979              4.925
 Vibration     3          0.596              1.976              4.658
 Vibration     4          0.599              1.965              3.972
 Vibration     5          0.604              1.949              3.450
 Vibration     6          0.609              1.932              3.091
 Vibration     7          0.610              1.929              3.042
 Vibration     8          0.616              1.910              2.766
 Vibration     9          0.625              1.881              2.450
 Vibration    10          0.636              1.847              2.179
 Vibration    11          0.646              1.813              1.971
 Vibration    12          0.652              1.795              1.877
 Vibration    13          0.657              1.780              1.808
 Vibration    14          0.663              1.763              1.731
 Vibration    15          0.669              1.743              1.651
 Vibration    16          0.679              1.715              1.547
 Vibration    17          0.686              1.692              1.473
 Vibration    18          0.700              1.651              1.352
 Vibration    19          0.715              1.610              1.247
 Vibration    20          0.727              1.575              1.165
 Vibration    21          0.728              1.573              1.161
 Vibration    22          0.732              1.560              1.134
 Vibration    23          0.740              1.539              1.090
 Vibration    24          0.761              1.484              0.987
 Vibration    25          0.782              1.428              0.894
 Vibration    26          0.796              1.393              0.842
 Vibration    27          0.806              1.368              0.805
 Vibration    28          0.886              1.181              0.584
 Vibration    29          0.962              1.025              0.444
 Vibration    30          0.966              1.017              0.438

 Optimization completed.
    -- Stationary point found.
 Normal termination of Gaussian 16 at Tue Nov  1 09:57:22 2022.
