 Gaussian 16, Revision C.01,
 Gaussian 16:  ES64L-G16RevC.01  3-Jul-2019

 -----------------------------------------------------------
 # opt=(calcfc,ts,noeigen) freq b3lyp/gen nosymm pseudo=read
 -----------------------------------------------------------

 -------------------
 Title Card Required
 -------------------
 Symbolic Z-matrix:
 Charge =  0 Multiplicity = 1

 SCF Done:  E(RB3LYP) =  -3392.00283190     A.U. after   22 cycles
 SCF Done:  E(RB3LYP) =  -3391.99981126     A.U. after   17 cycles
 SCF Done:  E(RB3LYP) =  -3391.99796129     A.U. after   17 cycles
 SCF Done:  E(RB3LYP) =  -3391.99907852     A.U. after   17 cycles
 SCF Done:  E(RB3LYP) =  -3391.99922344     A.U. after   16 cycles
 SCF Done:  E(RB3LYP) =  -3391.99924449     A.U. after   15 cycles
 SCF Done:  E(RB3LYP) =  -3391.99924760     A.U. after   13 cycles
 SCF Done:  E(RB3LYP) =  -3391.99924732     A.U. after   14 cycles
 SCF Done:  E(RB3LYP) =  -3391.99924925     A.U. after   13 cycles
 SCF Done:  E(RB3LYP) =  -3391.99924966     A.U. after   12 cycles
 SCF Done:  E(RB3LYP) =  -3391.99924993     A.U. after   12 cycles
 Optimization completed.
    -- Stationary point found.
 Normal termination of Gaussian 16 at Tue Nov  1 10:22:25 2022.

 ------------------------------------------------------------------
 #N Geom=AllCheck Guess=TCheck SCRF=Check GenChk RB3LYP/ChkBas Freq
 ------------------------------------------------------------------

 Structure from the checkpoint file:  "/home/chesagar/scratch/Gau-107850.chk"
 -------------------
 Title Card Required
 -------------------
 Charge =  0 Multiplicity = 1

                          Input orientation:
 ---------------------------------------------------------------------
 Center     Atomic      Atomic             Coordinates (Angstroms)
 Number     Number       Type             X           Y           Z
 ---------------------------------------------------------------------
      1         42           0       -0.376885    1.665862   11.959858
      2         16           0        0.257670    3.808065   11.895411
      3         16           0       -2.667798    1.807622   12.448281
      4         16           0       -0.284928    0.750646    9.769717
      5         16           0        1.045430    0.037843   12.857314
      6          1           0        1.017511   -1.015946   12.016393
      7         42           0       -2.435582    1.639846   10.178292
      8         16           0       -4.035019    0.537393    8.866758
      9          1           0       -3.937922    1.228403    7.706051
     10         16           0       -2.521974    3.826095    9.317258
     11          1           0       -2.566556    3.680884    7.636841
     12         42           0       -0.294249    3.191268    9.640515
     13         16           0        0.784092    5.247646    8.935952
     14          1           0        1.004071    5.899960   10.094283
     15         16           0       -0.196218    2.955422    7.165665
     16          1           0       -1.771918    3.422950    7.067752
     17          1           0       -0.492304    1.654509    6.954883
 ---------------------------------------------------------------------

 SCF Done:  E(RB3LYP) =  -3391.99924993     A.U. after    1 cycles

 Alpha  occ. eigenvalues --  -88.91824 -88.91203 -88.90775 -88.89316 -88.88756
 Alpha  occ. eigenvalues --  -88.88396 -88.88070 -88.85797  -7.99374  -7.98818
 Alpha  occ. eigenvalues --   -7.98474  -7.97180  -7.96590  -7.96207  -7.95935
 Alpha  occ. eigenvalues --   -7.93487  -5.95599  -5.95213  -5.95181  -5.95028
 Alpha  occ. eigenvalues --   -5.94828  -5.94466  -5.94451  -5.94416  -5.94408
 Alpha  occ. eigenvalues --   -5.93152  -5.93127  -5.93080  -5.92603  -5.92511
 Alpha  occ. eigenvalues --   -5.92487  -5.92479  -5.92197  -5.92050  -5.91936
 Alpha  occ. eigenvalues --   -5.91814  -5.91631  -5.89770  -5.89379  -5.89182
 Alpha  occ. eigenvalues --   -2.55133  -2.54808  -2.53809  -1.58681  -1.58083
 Alpha  occ. eigenvalues --   -1.57833  -1.57339  -1.57113  -1.56165  -1.55759
 Alpha  occ. eigenvalues --   -1.55529  -1.55206  -0.77823  -0.74695  -0.74364
 Alpha  occ. eigenvalues --   -0.73665  -0.73337  -0.72069  -0.71649  -0.70491
 Alpha  occ. eigenvalues --   -0.51058  -0.46287  -0.44493  -0.43694  -0.40906
 Alpha  occ. eigenvalues --   -0.40613  -0.39718  -0.39170  -0.38873  -0.38539
 Alpha  occ. eigenvalues --   -0.37906  -0.37774  -0.36206  -0.34742  -0.33923
 Alpha  occ. eigenvalues --   -0.33645  -0.33186  -0.32688  -0.31486  -0.30689
 Alpha  occ. eigenvalues --   -0.30053  -0.29917  -0.28753  -0.28212  -0.27392
 Alpha  occ. eigenvalues --   -0.26263  -0.24793  -0.23609
 Alpha virt. eigenvalues --   -0.14786  -0.14697  -0.13322  -0.13142  -0.12129
 Alpha virt. eigenvalues --   -0.11317  -0.09455  -0.09357  -0.08900  -0.08023
 Alpha virt. eigenvalues --   -0.07029  -0.04010  -0.01605  -0.00641   0.00064

 Mulliken charges:
               1
     1  Mo   0.099235
     2  S   -0.047035
     3  S   -0.072430
     4  S    0.054645
     5  S   -0.151582
     6  H    0.101027
     7  Mo   0.109324
     8  S   -0.144413
     9  H    0.087642
    10  S    0.106394
    11  H   -0.020389
    12  Mo  -0.317194
    13  S   -0.080717
    14  H    0.081327
    15  S    0.053385
    16  H    0.027935
    17  H    0.112847
 Sum of Mulliken charges =  -0.00000

 Dipole moment (field-independent basis, Debye):
    X=             -0.6772    Y=             -1.9411    Z=             -1.0263  Tot=              2.2978
 Quadrupole moment (field-independent basis, Debye-Ang):
   XX=           -183.6611   YY=           -188.9368   ZZ=           -196.2109
   XY=             -5.1803   XZ=             -1.6250   YZ=            -16.1430

  Exact polarizability:     290.295      38.705     290.733      34.786     -46.654     310.526
 Approx polarizability:     820.787     155.468     795.781      81.499    -121.277     815.356

 ******    1 imaginary frequencies (negative Signs) ******

                      1                      2                      3
                      A                      A                      A
 Frequencies --  -1338.2709                52.1325                53.8044
 Red. masses --      1.0648                14.1731                10.6842
 Frc consts  --      1.1236                 0.0227                 0.0182
 IR Inten    --   1576.0330                 0.6208                 0.7216

                      4                      5                      6
                      A                      A                      A
 Frequencies --     62.4093                67.5770                96.5156
 Red. masses --     11.2350                 9.9057                 9.1220
 Frc consts  --      0.0258                 0.0267                 0.0501
 IR Inten    --      0.7417                 0.1949                 1.2598

                      7                      8                      9
                      A                      A                      A
 Frequencies --    109.3597               127.6295               147.2893
 Red. masses --      9.7151                20.7614                15.6738
 Frc consts  --      0.0685                 0.1993                 0.2003
 IR Inten    --      0.1595                 0.8290                 0.8865

                     10                     11                     12
                      A                      A                      A
 Frequencies --    152.8676               171.1979               176.7992
 Red. masses --     21.3571                12.0234                26.0086
 Frc consts  --      0.2941                 0.2076                 0.4790
 IR Inten    --      1.0987                 1.3682                 1.7887

                     13                     14                     15
                      A                      A                      A
 Frequencies --    195.5671               210.8960               244.8715
 Red. masses --     13.6387                18.9687                 1.6554
 Frc consts  --      0.3073                 0.4971                 0.0585
 IR Inten    --      0.9803                 0.1372                 2.4011

                     16                     17                     18
                      A                      A                      A
 Frequencies --    254.8874               259.2132               263.3364
 Red. masses --      5.9432                 5.7058                 1.7653
 Frc consts  --      0.2275                 0.2259                 0.0721
 IR Inten    --      1.2064                11.0337                 7.5659

                     19                     20                     21
                      A                      A                      A
 Frequencies --    287.9032               296.2377               305.0228
 Red. masses --      7.6122                 5.7935                 4.5874
 Frc consts  --      0.3718                 0.2996                 0.2515
 IR Inten    --      3.9628                 3.3243                 9.6918

                     22                     23                     24
                      A                      A                      A
 Frequencies --    324.9217               339.5836               346.7710
 Red. masses --      1.4691                18.6213                 8.4547
 Frc consts  --      0.0914                 1.2652                 0.5990
 IR Inten    --     13.7787                11.2295                20.4001

                     25                     26                     27
                      A                      A                      A
 Frequencies --    347.3546               360.9749               370.1339
 Red. masses --     13.8495                28.9561                20.7708
 Frc consts  --      0.9845                 2.2230                 1.6766
 IR Inten    --     12.3858                54.4715                54.2793

                     28                     29                     30
                      A                      A                      A
 Frequencies --    394.2723               428.2390               444.8786
 Red. masses --      1.2177                16.1619                14.9027
 Frc consts  --      0.1115                 1.7463                 1.7378
 IR Inten    --      4.5352                 0.3840                19.3157

                     31                     32                     33
                      A                      A                      A
 Frequencies --    456.6330               469.0331               542.7710
 Red. masses --     17.5799                15.4803                 1.1042
 Frc consts  --      2.1597                 2.0065                 0.1917
 IR Inten    --      6.9751                33.7260                17.9914

                     34                     35                     36
                      A                      A                      A
 Frequencies --    597.0381               633.3053               694.6209
 Red. masses --      1.0860                 1.0702                 1.0434
 Frc consts  --      0.2281                 0.2529                 0.2966
 IR Inten    --     11.5397                15.6757                 9.6482

                     37                     38                     39
                      A                      A                      A
 Frequencies --    731.1453              1038.2671              1195.2375
 Red. masses --      1.0422                 1.0345                 1.0289
 Frc consts  --      0.3282                 0.6571                 0.8660
 IR Inten    --      5.5598                10.4532                71.1959

                     40                     41                     42
                      A                      A                      A
 Frequencies --   1197.2388              1351.7464              2632.3426
 Red. masses --      1.0149                 1.0295                 1.0383
 Frc consts  --      0.8571                 1.1084                 4.2389
 IR Inten    --      1.7211                10.7866                 0.9640

                     43                     44                     45
                      A                      A                      A
 Frequencies --   2667.8283              2683.9886              2689.0018
 Red. masses --      1.0383                 1.0385                 1.0387
 Frc consts  --      4.3541                 4.4079                 4.4249
 IR Inten    --      0.4921                 0.7222                 2.1193

 - Thermochemistry -
 -------------------
 Temperature   298.150 Kelvin.  Pressure   1.00000 Atm.
 Atom     1 has atomic number 42 and mass  97.90550

 Molecular mass:   555.54002 amu.
 Principal axes and moments of inertia in atomic units:
                           1         2         3
     Eigenvalues --  6245.003017229.93140**********
           X            0.01163   0.86541  -0.50093
           Y           -0.58028   0.41382   0.70145
           Z            0.81434   0.28252   0.50699
 This molecule is an asymmetric top.
 Rotational symmetry number  1.
 Warning -- assumption of classical behavior for rotation
           may cause significant error
 Rotational temperatures (Kelvin)      0.01387     0.01198     0.00840
 Rotational constants (GHZ):           0.28899     0.24962     0.17503
    1 imaginary frequencies ignored.
 Zero-point vibrational energy     158342.8 (Joules/Mol)
                                   37.84483 (Kcal/Mol)
 Warning -- explicit consideration of  33 degrees of freedom as
           vibrations may cause significant error
 Vibrational temperatures:     75.01    77.41    89.79    97.23   138.86
          (Kelvin)            157.34   183.63   211.92   219.94   246.32
                              254.37   281.38   303.43   352.32   366.73
                              372.95   378.88   414.23   426.22   438.86
                              467.49   488.59   498.93   499.77   519.36
                              532.54   567.27   616.14   640.08   656.99
                              674.83   780.93   859.00   911.19   999.40
                             1051.95  1493.83  1719.68  1722.56  1944.86
                             3787.35  3838.41  3861.66  3868.87

 Zero-point correction=                           0.060310 (Hartree/Particle)
 Thermal correction to Energy=                    0.079683
 Thermal correction to Enthalpy=                  0.080627
 Thermal correction to Gibbs Free Energy=         0.011280
 Sum of electronic and zero-point Energies=          -3391.938940
 Sum of electronic and thermal Energies=             -3391.919567
 Sum of electronic and thermal Enthalpies=           -3391.918623
 Sum of electronic and thermal Free Energies=        -3391.987970

                     E (Thermal)             CV                S
                      KCal/Mol        Cal/Mol-Kelvin    Cal/Mol-Kelvin
 Total                   50.002             64.999            145.955
 Electronic               0.000              0.000              0.000
 Translational            0.889              2.981             44.829
 Rotational               0.889              2.981             34.498
 Vibrational             48.225             59.037             66.628
 Vibration     1          0.596              1.977              4.735
 Vibration     2          0.596              1.976              4.672
 Vibration     3          0.597              1.972              4.380
 Vibration     4          0.598              1.970              4.223
 Vibration     5          0.603              1.952              3.523
 Vibration     6          0.606              1.942              3.280
 Vibration     7          0.611              1.926              2.981
 Vibration     8          0.617              1.906              2.707
 Vibration     9          0.619              1.899              2.636
 Vibration    10          0.626              1.878              2.422
 Vibration    11          0.628              1.871              2.362
 Vibration    12          0.636              1.846              2.174
 Vibration    13          0.643              1.824              2.036
 Vibration    14          0.660              1.771              1.767
 Vibration    15          0.665              1.755              1.697
 Vibration    16          0.668              1.747              1.667
 Vibration    17          0.670              1.740              1.640
 Vibration    18          0.685              1.696              1.486
 Vibration    19          0.690              1.681              1.438
 Vibration    20          0.696              1.664              1.389
 Vibration    21          0.709              1.626              1.285
 Vibration    22          0.719              1.596              1.214
 Vibration    23          0.725              1.582              1.181
 Vibration    24          0.725              1.581              1.178
 Vibration    25          0.735              1.553              1.118
 Vibration    26          0.742              1.534              1.079
 Vibration    27          0.761              1.482              0.984
 Vibration    28          0.790              1.409              0.864
 Vibration    29          0.804              1.372              0.811
 Vibration    30          0.815              1.346              0.776
 Vibration    31          0.826              1.319              0.740
 Vibration    32          0.898              1.156              0.559
 Vibration    33          0.955              1.038              0.455

 Optimization completed.
    -- Stationary point found.
 Normal termination of Gaussian 16 at Tue Nov  1 10:23:10 2022.
