 Gaussian 16, Revision C.01,
 Gaussian 16:  ES64L-G16RevC.01  3-Jul-2019

 -----------------------------------------------------------
 # opt=(calcfc,ts,noeigen) freq b3lyp/gen nosymm pseudo=read
 -----------------------------------------------------------

 -------------------
 Title Card Required
 -------------------
 Symbolic Z-matrix:
 Charge =  0 Multiplicity = 1

 SCF Done:  E(RB3LYP) =  -4189.58560979     A.U. after   25 cycles
 SCF Done:  E(RB3LYP) =  -4189.58852232     A.U. after   18 cycles
 SCF Done:  E(RB3LYP) =  -4189.59490992     A.U. after   18 cycles
 SCF Done:  E(RB3LYP) =  -4189.59503645     A.U. after   18 cycles
 SCF Done:  E(RB3LYP) =  -4189.59526092     A.U. after   17 cycles
 SCF Done:  E(RB3LYP) =  -4189.59535170     A.U. after   17 cycles
 SCF Done:  E(RB3LYP) =  -4189.59542708     A.U. after   17 cycles
 SCF Done:  E(RB3LYP) =  -4189.59549373     A.U. after   17 cycles
 SCF Done:  E(RB3LYP) =  -4189.59553500     A.U. after   17 cycles
 SCF Done:  E(RB3LYP) =  -4189.59556712     A.U. after   15 cycles
 SCF Done:  E(RB3LYP) =  -4189.59552159     A.U. after   17 cycles
 SCF Done:  E(RB3LYP) =  -4189.59558582     A.U. after   16 cycles
 SCF Done:  E(RB3LYP) =  -4189.59558898     A.U. after   15 cycles
 SCF Done:  E(RB3LYP) =  -4189.59559076     A.U. after   15 cycles
 SCF Done:  E(RB3LYP) =  -4189.59559382     A.U. after   14 cycles
 Optimization completed.
    -- Stationary point found.
 Normal termination of Gaussian 16 at Sat Mar 19 12:04:41 2022.

 ------------------------------------------------------------------
 #N Geom=AllCheck Guess=TCheck SCRF=Check GenChk RB3LYP/ChkBas Freq
 ------------------------------------------------------------------

 Structure from the checkpoint file:  "/home/chesagar/scratch/Gau-138793.chk"
 -------------------
 Title Card Required
 -------------------
 Charge =  0 Multiplicity = 1

                          Input orientation:
 ---------------------------------------------------------------------
 Center     Atomic      Atomic             Coordinates (Angstroms)
 Number     Number       Type             X           Y           Z
 ---------------------------------------------------------------------
      1         42           0       -0.330814    1.540836   11.053311
      2         16           0       -0.242130    3.657595   11.887798
      3         16           0       -2.368118    0.515391   11.642143
      4         16           0       -0.748467    1.993962    8.772529
      5         16           0        1.763739    0.708634   10.258397
      6          1           0        1.797503    1.092031    8.963644
      7         42           0       -2.923511    1.709545    9.770062
      8         16           0       -5.230517    0.947765   10.302057
      9          1           0       -5.901711    1.650371    9.365579
     10         16           0       -3.708644    3.862294   10.174880
     11         42           0       -1.473089    4.108784    9.881950
     12         16           0       -3.494238    0.605884    7.761101
     13          1           0       -2.395353    0.796341    6.990675
     14         16           0        0.397282    0.374078   13.033765
     15          1           0        1.739764    0.395099   12.875949
     16         16           0       -1.215219    5.072259    7.685351
     17         16           0       -1.757977    6.380256   10.696174
     18          1           0        0.130400    5.207683    7.660225
     19          1           0       -1.402814    6.755397    8.270920
     20          1           0       -0.474138    6.755817   10.900406
     21          1           0       -1.589358    7.097848    9.099685
 ---------------------------------------------------------------------

 SCF Done:  E(RB3LYP) =  -4189.59559382     A.U. after    1 cycles

 Alpha  occ. eigenvalues --  -88.94383 -88.93441 -88.90659 -88.90393 -88.89687
 Alpha  occ. eigenvalues --  -88.88281 -88.87354 -88.87179 -88.86690 -88.84551
 Alpha  occ. eigenvalues --   -8.02042  -8.00984  -7.98240  -7.98166  -7.97502
 Alpha  occ. eigenvalues --   -7.96044  -7.94979  -7.94862  -7.94369  -7.92175
 Alpha  occ. eigenvalues --   -5.98230  -5.98030  -5.97720  -5.97173  -5.97053
 Alpha  occ. eigenvalues --   -5.96606  -5.94334  -5.94211  -5.94184  -5.94101
 Alpha  occ. eigenvalues --   -5.94056  -5.94043  -5.93574  -5.93450  -5.93305
 Alpha  occ. eigenvalues --   -5.92136  -5.91984  -5.91846  -5.91252  -5.91150
 Alpha  occ. eigenvalues --   -5.90866  -5.90768  -5.90684  -5.90637  -5.90532
 Alpha  occ. eigenvalues --   -5.90266  -5.90067  -5.88475  -5.88138  -5.87792
 Alpha  occ. eigenvalues --   -2.55964  -2.55874  -2.54882  -1.59183  -1.58886
 Alpha  occ. eigenvalues --   -1.58632  -1.58036  -1.57704  -1.57433  -1.57090
 Alpha  occ. eigenvalues --   -1.56823  -1.55882  -0.80423  -0.78195  -0.75043
 Alpha  occ. eigenvalues --   -0.73203  -0.72828  -0.72138  -0.71872  -0.71234
 Alpha  occ. eigenvalues --   -0.70607  -0.69331  -0.53117  -0.47626  -0.46948
 Alpha  occ. eigenvalues --   -0.44447  -0.43452  -0.41788  -0.41363  -0.40406
 Alpha  occ. eigenvalues --   -0.39763  -0.39089  -0.38689  -0.38299  -0.37738
 Alpha  occ. eigenvalues --   -0.36874  -0.36623  -0.36131  -0.35416  -0.35249
 Alpha  occ. eigenvalues --   -0.35114  -0.33419  -0.32984  -0.31679  -0.30337
 Alpha  occ. eigenvalues --   -0.29849  -0.29222  -0.29050  -0.28750  -0.27968
 Alpha  occ. eigenvalues --   -0.27005  -0.26655  -0.25898  -0.24316  -0.22839
 Alpha virt. eigenvalues --   -0.17319  -0.15620  -0.14240  -0.13675  -0.12198
 Alpha virt. eigenvalues --   -0.11083  -0.10769  -0.10276  -0.09757  -0.09266
 Alpha virt. eigenvalues --   -0.06195  -0.05301  -0.04927  -0.02471  -0.01516

 Mulliken charges:
               1
     1  Mo  -0.172893
     2  S   -0.013866
     3  S    0.018034
     4  S    0.056205
     5  S   -0.055819
     6  H    0.068484
     7  Mo  -0.218004
     8  S   -0.046770
     9  H    0.075876
    10  S    0.037466
    11  Mo  -0.289380
    12  S    0.011045
    13  H    0.055759
    14  S    0.003065
    15  H    0.082368
    16  S    0.035993
    17  S    0.069457
    18  H    0.131316
    19  H    0.020677
    20  H    0.115983
    21  H    0.015004
 Sum of Mulliken charges =  -0.00000

 Dipole moment (field-independent basis, Debye):
    X=              4.0414    Y=              7.7392    Z=             -3.9155  Tot=              9.5687
 Quadrupole moment (field-independent basis, Debye-Ang):
   XX=           -224.0689   YY=           -160.4010   ZZ=           -285.3720
   XY=              0.8485   XZ=             43.7716   YZ=             66.3694

  Exact polarizability:     385.015      -1.922     419.724      44.932     -49.600     325.178
 Approx polarizability:    1032.422     -11.352    1177.932     110.455    -188.139     926.237

 ******    1 imaginary frequencies (negative Signs) ******

                      1                      2                      3
                      A                      A                      A
 Frequencies --   -957.9377                35.6112                40.8834
 Red. masses --      1.1387                11.9289                11.1117
 Frc consts  --      0.6156                 0.0089                 0.0109
 IR Inten    --   3346.5457                 0.0558                 0.2986

                      4                      5                      6
                      A                      A                      A
 Frequencies --     50.1605                82.7093                86.1493
 Red. masses --     11.2945                10.5994                11.0481
 Frc consts  --      0.0167                 0.0427                 0.0483
 IR Inten    --      0.4585                 0.8438                 0.1243

                      7                      8                      9
                      A                      A                      A
 Frequencies --     89.2956                94.6776               108.8222
 Red. masses --     17.0876                 9.5851                18.4708
 Frc consts  --      0.0803                 0.0506                 0.1289
 IR Inten    --      0.6647                 0.0170                 0.4261

                     10                     11                     12
                      A                      A                      A
 Frequencies --    126.0041               128.3796               145.1251
 Red. masses --     18.0877                23.8227                21.0400
 Frc consts  --      0.1692                 0.2313                 0.2611
 IR Inten    --      0.9982                 1.7598                 0.5941

                     13                     14                     15
                      A                      A                      A
 Frequencies --    154.4108               165.4564               168.5165
 Red. masses --     11.2089                18.7309                20.3421
 Frc consts  --      0.1575                 0.3021                 0.3404
 IR Inten    --      0.9304                 0.6514                 1.1174

                     16                     17                     18
                      A                      A                      A
 Frequencies --    181.1440               196.7053               210.1589
 Red. masses --     19.3237                 4.1387                10.3974
 Frc consts  --      0.3736                 0.0944                 0.2706
 IR Inten    --      0.1687                 0.9236                 2.1609

                     19                     20                     21
                      A                      A                      A
 Frequencies --    224.8442               235.8686               255.0254
 Red. masses --      1.9776                 1.5911                 3.0630
 Frc consts  --      0.0589                 0.0522                 0.1174
 IR Inten    --      2.2298                 0.8601                 5.8091

                     22                     23                     24
                      A                      A                      A
 Frequencies --    268.1562               282.8447               294.6466
 Red. masses --     20.2388                16.2350                22.4736
 Frc consts  --      0.8575                 0.7652                 1.1495
 IR Inten    --     16.9011                 3.9975                20.1305

                     25                     26                     27
                      A                      A                      A
 Frequencies --    303.6880               311.7408               313.0004
 Red. masses --      5.3841                 4.5649                 2.9921
 Frc consts  --      0.2926                 0.2614                 0.1727
 IR Inten    --     10.7143                14.6469                15.7946

                     28                     29                     30
                      A                      A                      A
 Frequencies --    325.5403               344.3622               347.1686
 Red. masses --      7.4234                 6.9122                 6.5828
 Frc consts  --      0.4635                 0.4829                 0.4675
 IR Inten    --      6.0971                63.0696                 6.3182

                     31                     32                     33
                      A                      A                      A
 Frequencies --    351.8874               366.9396               372.0073
 Red. masses --     15.2185                11.9576                11.6009
 Frc consts  --      1.1103                 0.9486                 0.9459
 IR Inten    --     13.2499                41.2337                 8.8903

                     34                     35                     36
                      A                      A                      A
 Frequencies --    405.8115               421.6910               443.2917
 Red. masses --      1.1512                11.1366                10.6700
 Frc consts  --      0.1117                 1.1668                 1.2354
 IR Inten    --      5.7742                 4.7629                 3.5920

                     37                     38                     39
                      A                      A                      A
 Frequencies --    444.9036               455.7355               459.9696
 Red. masses --      1.7700                 3.1160                 3.9056
 Frc consts  --      0.2064                 0.3813                 0.4868
 IR Inten    --      7.4030                12.5988                19.4868

                     40                     41                     42
                      A                      A                      A
 Frequencies --    475.1556               579.3493               635.9248
 Red. masses --      1.3271                 1.0789                 1.0762
 Frc consts  --      0.1765                 0.2134                 0.2564
 IR Inten    --     30.4753                 9.5609                 5.6349

                     43                     44                     45
                      A                      A                      A
 Frequencies --    685.4799               732.4335               771.5834
 Red. masses --      1.0548                 1.0470                 1.0448
 Frc consts  --      0.2920                 0.3309                 0.3665
 IR Inten    --      9.6733                 8.4987                13.5684

                     46                     47                     48
                      A                      A                      A
 Frequencies --    779.9085               786.2627               956.7627
 Red. masses --      1.0427                 1.0320                 1.0637
 Frc consts  --      0.3737                 0.3759                 0.5737
 IR Inten    --      9.5515                 5.1285                74.8749

                     49                     50                     51
                      A                      A                      A
 Frequencies --    996.8643              1167.8807              1843.4689
 Red. masses --      1.0092                 1.0118                 1.0206
 Frc consts  --      0.5909                 0.8131                 2.0435
 IR Inten    --      2.8963                 2.1044               732.7186

                     52                     53                     54
                      A                      A                      A
 Frequencies --   2616.7345              2647.1931              2651.5492
 Red. masses --      1.0377                 1.0384                 1.0386
 Frc consts  --      4.1865                 4.2875                 4.3024
 IR Inten    --     16.7016                 0.6884                 5.7299

                     55                     56                     57
                      A                      A                      A
 Frequencies --   2658.1832              2662.0773              2678.7116
 Red. masses --      1.0379                 1.0383                 1.0383
 Frc consts  --      4.3208                 4.3352                 4.3898
 IR Inten    --      1.1387                 7.7560                 2.4995

 - Thermochemistry -
 -------------------
 Temperature   298.150 Kelvin.  Pressure   1.00000 Atm.
 Atom     1 has atomic number 42 and mass  97.90550

 Molecular mass:   621.49982 amu.
 Principal axes and moments of inertia in atomic units:
                           1         2         3
     Eigenvalues --  8740.447729891.21183**********
           X           -0.53566   0.73367  -0.41808
           Y            0.71563   0.65724   0.23647
           Z           -0.44827   0.17252   0.87709
 This molecule is an asymmetric top.
 Rotational symmetry number  1.
 Warning -- assumption of classical behavior for rotation
           may cause significant error
 Rotational temperatures (Kelvin)      0.00991     0.00876     0.00638
 Rotational constants (GHZ):           0.20648     0.18246     0.13299
    1 imaginary frequencies ignored.
 Zero-point vibrational energy     213048.1 (Joules/Mol)
                                   50.91971 (Kcal/Mol)
 Warning -- explicit consideration of  40 degrees of freedom as
           vibrations may cause significant error
 Vibrational temperatures:     51.24    58.82    72.17   119.00   123.95
          (Kelvin)            128.48   136.22   156.57   181.29   184.71
                              208.80   222.16   238.05   242.46   260.63
                              283.02   302.37   323.50   339.36   366.92
                              385.82   406.95   423.93   436.94   448.53
                              450.34   468.38   495.46   499.50   506.29
                              527.94   535.24   583.87   606.72   637.80
                              640.12   655.70   661.79   683.64   833.55
                              914.95   986.25  1053.81  1110.14  1122.11
                             1131.26  1376.57  1434.27  1680.32  2652.34
                             3764.90  3808.72  3814.99  3824.53  3830.14
                             3854.07

 Zero-point correction=                           0.081146 (Hartree/Particle)
 Thermal correction to Energy=                    0.104866
 Thermal correction to Enthalpy=                  0.105810
 Thermal correction to Gibbs Free Energy=         0.026843
 Sum of electronic and zero-point Energies=          -4189.514448
 Sum of electronic and thermal Energies=             -4189.490728
 Sum of electronic and thermal Enthalpies=           -4189.489783
 Sum of electronic and thermal Free Energies=        -4189.568751

                     E (Thermal)             CV                S
                      KCal/Mol        Cal/Mol-Kelvin    Cal/Mol-Kelvin
 Total                   65.805             79.895            166.201
 Electronic               0.000              0.000              0.000
 Translational            0.889              2.981             45.164
 Rotational               0.889              2.981             35.416
 Vibrational             64.027             73.933             85.622
 Vibration     1          0.594              1.982              5.489
 Vibration     2          0.594              1.981              5.216
 Vibration     3          0.595              1.978              4.811
 Vibration     4          0.600              1.961              3.826
 Vibration     5          0.601              1.959              3.746
 Vibration     6          0.602              1.957              3.675
 Vibration     7          0.603              1.953              3.561
 Vibration     8          0.606              1.942              3.290
 Vibration     9          0.611              1.927              3.006
 Vibration    10          0.611              1.925              2.970
 Vibration    11          0.617              1.908              2.735
 Vibration    12          0.620              1.898              2.617
 Vibration    13          0.624              1.885              2.486
 Vibration    14          0.625              1.881              2.452
 Vibration    15          0.630              1.865              2.317
 Vibration    16          0.636              1.844              2.164
 Vibration    17          0.642              1.825              2.042
 Vibration    18          0.650              1.803              1.920
 Vibration    19          0.655              1.786              1.834
 Vibration    20          0.665              1.754              1.696
 Vibration    21          0.673              1.732              1.608
 Vibration    22          0.682              1.705              1.516
 Vibration    23          0.689              1.684              1.447
 Vibration    24          0.695              1.667              1.396
 Vibration    25          0.700              1.651              1.353
 Vibration    26          0.701              1.649              1.346
 Vibration    27          0.710              1.624              1.282
 Vibration    28          0.723              1.587              1.192
 Vibration    29          0.725              1.581              1.179
 Vibration    30          0.728              1.571              1.158
 Vibration    31          0.740              1.540              1.093
 Vibration    32          0.744              1.530              1.072
 Vibration    33          0.771              1.458              0.942
 Vibration    34          0.784              1.423              0.886
 Vibration    35          0.803              1.376              0.816
 Vibration    36          0.804              1.372              0.811
 Vibration    37          0.814              1.348              0.779
 Vibration    38          0.818              1.339              0.766
 Vibration    39          0.832              1.305              0.723
 Vibration    40          0.936              1.076              0.487

                           ! Non-Optimized Parameters !
 Normal termination of Gaussian 16 at Sat Mar 19 12:05:49 2022.
