 Gaussian 16, Revision C.01,
 Gaussian 16:  ES64L-G16RevC.01  3-Jul-2019

 -----------------------------------------------------------
 # opt=(calcfc,ts,noeigen) freq b3lyp/gen nosymm pseudo=read
 -----------------------------------------------------------

 -------------------
 Title Card Required
 -------------------
 Symbolic Z-matrix:
 Charge =  0 Multiplicity = 1

 SCF Done:  E(RB3LYP) =  -5583.98564527     A.U. after   33 cycles
 SCF Done:  E(RB3LYP) =  -5583.98650124     A.U. after   19 cycles
 SCF Done:  E(RB3LYP) =  -5583.98516141     A.U. after   19 cycles
 SCF Done:  E(RB3LYP) =  -5583.98097678     A.U. after   20 cycles
 SCF Done:  E(RB3LYP) =  -5583.98212853     A.U. after   20 cycles
 SCF Done:  E(RB3LYP) =  -5583.98592165     A.U. after   20 cycles
 SCF Done:  E(RB3LYP) =  -5583.98483337     A.U. after   19 cycles
 SCF Done:  E(RB3LYP) =  -5583.98107225     A.U. after   20 cycles
 SCF Done:  E(RB3LYP) =  -5583.98096505     A.U. after   19 cycles
 SCF Done:  E(RB3LYP) =  -5583.98477658     A.U. after   19 cycles
 SCF Done:  E(RB3LYP) =  -5583.98601985     A.U. after   19 cycles
 SCF Done:  E(RB3LYP) =  -5583.98608357     A.U. after   18 cycles
 SCF Done:  E(RB3LYP) =  -5583.98612119     A.U. after   17 cycles
 SCF Done:  E(RB3LYP) =  -5583.98612515     A.U. after   16 cycles
 SCF Done:  E(RB3LYP) =  -5583.98612723     A.U. after   14 cycles
 SCF Done:  E(RB3LYP) =  -5583.98508355     A.U. after   20 cycles
 SCF Done:  E(RB3LYP) =  -5583.98604408     A.U. after   19 cycles
 SCF Done:  E(RB3LYP) =  -5583.98611795     A.U. after   18 cycles
 SCF Done:  E(RB3LYP) =  -5583.98612784     A.U. after   16 cycles
 Optimization completed.
    -- Stationary point found.
 Normal termination of Gaussian 16 at Tue May  3 23:23:48 2022.

 ------------------------------------------------------------------
 #N Geom=AllCheck Guess=TCheck SCRF=Check GenChk RB3LYP/ChkBas Freq
 ------------------------------------------------------------------

 Structure from the checkpoint file:  "/home/chesagar/scratch/Gau-40230.chk"
 -------------------
 Title Card Required
 -------------------
 Charge =  0 Multiplicity = 1

                          Input orientation:
 ---------------------------------------------------------------------
 Center     Atomic      Atomic             Coordinates (Angstroms)
 Number     Number       Type             X           Y           Z
 ---------------------------------------------------------------------
      1         42           0        0.166977    0.795445    9.809289
      2         16           0        0.412391    2.876991   10.992560
      3         16           0       -2.097008    0.826750   10.788663
      4         16           0       -0.051889    1.258565    7.508883
      5         16           0        0.430763   -1.508730    8.834532
      6          1           0        0.626850   -3.113355    9.354566
      7         42           0       -2.210508    1.459189    8.544964
      8         16           0       -4.314327    2.361687    7.677766
      9          1           0       -4.462478    1.608709    6.565557
     10         16           0       -2.249038    3.739239    9.643393
     11         42           0       -0.135002    3.378092    8.550422
     12         16           0       -2.755368   -0.668274    7.302739
     13          1           0       -1.690187   -0.916152    6.508617
     14         16           0        2.690508    1.115023    9.438488
     15          1           0        3.101711    0.732479   10.665323
     16         16           0       -0.766609    3.870630    6.039868
     17         16           0        2.039142    4.330317    7.612365
     18          1           0       -0.073373    5.013159    5.853782
     19         42           0       -1.732241   -1.197698    9.559993
     20          6           0       -1.321839   -1.826132   11.462613
     21          8           0       -1.114389   -2.214344   12.527587
     22         42           0       -2.674956    4.634613    7.433073
     23          6           0       -1.790239    6.400146    7.517104
     24          6           0       -4.221717    5.611248    8.350861
     25          6           0       -3.765527    4.952332    5.722097
     26          8           0       -1.273725    7.436883    7.570458
     27          8           0       -5.049834    6.231643    8.854821
     28          8           0       -4.388989    5.075653    4.763809
     29          1           0        2.428045    3.277189    6.853364
     30         42           0        2.420184    3.753721    9.967180
     31          6           0        2.127444    5.698816   10.344005
     32          6           0        3.072996    3.697561   11.905852
     33          6           0        4.432466    3.851709    9.515475
     34          8           0        1.971279    6.820208   10.585811
     35          8           0        5.550122    3.837907    9.250139
     36          8           0        3.447345    3.716502   12.994789
     37         16           0       -1.838861   -3.712295    9.219336
     38          1           0       -1.949668   -4.188970   10.476152
     39          1           0       -0.154409   -3.721631    9.334922
 ---------------------------------------------------------------------

 SCF Done:  E(RB3LYP) =  -5583.98612784     A.U. after    2 cycles

 Alpha  occ. eigenvalues --  -88.91276 -88.90877 -88.90636 -88.90323 -88.89993
 Alpha  occ. eigenvalues --  -88.89835 -88.89447 -88.89369 -88.88650 -88.88473
 Alpha  occ. eigenvalues --  -88.86684 -19.26789 -19.25569 -19.25511 -19.24711
 Alpha  occ. eigenvalues --  -19.24462 -19.22793 -19.22351 -10.33943 -10.32652
 Alpha  occ. eigenvalues --  -10.32648 -10.32205 -10.31950 -10.30425 -10.30029
 Alpha  occ. eigenvalues --   -7.98845  -7.98320  -7.98020  -7.97825  -7.97501
 Alpha  occ. eigenvalues --   -7.97221  -7.97027  -7.96675  -7.96010  -7.96005
 Alpha  occ. eigenvalues --   -7.94183  -5.95072  -5.94831  -5.94514  -5.94366
 Alpha  occ. eigenvalues --   -5.94335  -5.94280  -5.94251  -5.93913  -5.93875
 Alpha  occ. eigenvalues --   -5.93757  -5.93747  -5.93735  -5.93714  -5.93476
 Alpha  occ. eigenvalues --   -5.93420  -5.93292  -5.93239  -5.93168  -5.92955
 Alpha  occ. eigenvalues --   -5.92891  -5.92805  -5.92801  -5.92651  -5.92511
 Alpha  occ. eigenvalues --   -5.92281  -5.92182  -5.91993  -5.91871  -5.91784
 Alpha  occ. eigenvalues --   -5.91778  -5.90506  -5.90047  -5.89914  -2.53448
 Alpha  occ. eigenvalues --   -2.53178  -2.52632  -2.52197  -2.49297  -2.49081
 Alpha  occ. eigenvalues --   -1.56898  -1.56560  -1.56126  -1.55551  -1.55171
 Alpha  occ. eigenvalues --   -1.55012  -1.54726  -1.54680  -1.54494  -1.54294
 Alpha  occ. eigenvalues --   -1.54183  -1.53521  -1.52313  -1.52058  -1.51967
 Alpha  occ. eigenvalues --   -1.51834  -1.51144  -1.50747  -1.16990  -1.15787
 Alpha  occ. eigenvalues --   -1.15698  -1.14960  -1.14716  -1.12884  -1.12499
 Alpha  occ. eigenvalues --   -0.77470  -0.76233  -0.75286  -0.74206  -0.73965
 Alpha  occ. eigenvalues --   -0.73745  -0.73173  -0.72447  -0.71983  -0.71592
 Alpha  occ. eigenvalues --   -0.70206  -0.59946  -0.58804  -0.58743  -0.57763
 Alpha  occ. eigenvalues --   -0.57610  -0.56381  -0.55987  -0.51105  -0.49362
 Alpha  occ. eigenvalues --   -0.49119  -0.48824  -0.48613  -0.48505  -0.47755
 Alpha  occ. eigenvalues --   -0.47655  -0.47617  -0.47486  -0.47276  -0.47179
 Alpha  occ. eigenvalues --   -0.47137  -0.46820  -0.46247  -0.45950  -0.45488
 Alpha  occ. eigenvalues --   -0.45476  -0.45168  -0.44832  -0.44701  -0.44473
 Alpha  occ. eigenvalues --   -0.44312  -0.44191  -0.43802  -0.43472  -0.43081
 Alpha  occ. eigenvalues --   -0.42376  -0.40361  -0.40000  -0.39549  -0.38855
 Alpha  occ. eigenvalues --   -0.38635  -0.37911  -0.37202  -0.35942  -0.35575
 Alpha  occ. eigenvalues --   -0.35085  -0.34521  -0.34034  -0.33810  -0.33745
 Alpha  occ. eigenvalues --   -0.33538  -0.32761  -0.32510  -0.32288  -0.31858
 Alpha  occ. eigenvalues --   -0.31742  -0.31430  -0.30664  -0.30419  -0.29937
 Alpha  occ. eigenvalues --   -0.29439  -0.28411  -0.27428  -0.26873  -0.26476
 Alpha  occ. eigenvalues --   -0.25305  -0.24624  -0.24281  -0.23335  -0.23100
 Alpha  occ. eigenvalues --   -0.22769  -0.22570  -0.21933
 Alpha virt. eigenvalues --   -0.15348  -0.14057  -0.13593  -0.13278  -0.12448
 Alpha virt. eigenvalues --   -0.11373  -0.11014  -0.10572  -0.09453  -0.08823
 Alpha virt. eigenvalues --   -0.07619  -0.07366  -0.06572  -0.06154  -0.05585

 Mulliken charges:
               1
     1  Mo  -0.174693
     2  S    0.141880
     3  S    0.164883
     4  S    0.239739
     5  S    0.142275
     6  H    0.002019
     7  Mo  -0.259540
     8  S    0.005673
     9  H    0.097717
    10  S    0.186917
    11  Mo  -0.410499
    12  S    0.025539
    13  H    0.118978
    14  S    0.021936
    15  H    0.092620
    16  S    0.107079
    17  S    0.049386
    18  H    0.111698
    19  Mo  -0.356164
    20  C    0.241728
    21  O   -0.215674
    22  Mo  -0.301821
    23  C    0.241559
    24  C    0.254678
    25  C    0.251321
    26  O   -0.258703
    27  O   -0.231682
    28  O   -0.221707
    29  H    0.117231
    30  Mo  -0.340915
    31  C    0.222713
    32  C    0.244537
    33  C    0.260772
    34  O   -0.255894
    35  O   -0.218784
    36  O   -0.233404
    37  S    0.000067
    38  H    0.109756
    39  H    0.026780
 Sum of Mulliken charges =  -0.00000

 Dipole moment (field-independent basis, Debye):
    X=              0.0598    Y=             -5.1935    Z=             -0.7134  Tot=              5.2426
 Quadrupole moment (field-independent basis, Debye-Ang):
   XX=           -367.4068   YY=           -382.0228   ZZ=           -371.2838
   XY=              6.8766   XZ=             -0.3423   YZ=            -61.5378

  Exact polarizability:     667.884      37.622     797.823     111.045     -70.942     474.361
 Approx polarizability:    1855.542      84.117    2062.201     264.245    -161.023    1331.614

 ******    1 imaginary frequencies (negative Signs) ******

                      1                      2                      3
                      A                      A                      A
 Frequencies --  -1437.4171                27.6607                33.2554
 Red. masses --      1.0668                16.2640                15.0157
 Frc consts  --      1.2986                 0.0073                 0.0098
 IR Inten    --   3247.4884                 0.3151                 0.1300

                      4                      5                      6
                      A                      A                      A
 Frequencies --     36.7917                44.3384                47.7561
 Red. masses --     15.7608                15.6536                15.9508
 Frc consts  --      0.0126                 0.0181                 0.0214
 IR Inten    --      0.0811                 0.2105                 0.0292

                      7                      8                      9
                      A                      A                      A
 Frequencies --     50.8487                57.4082                63.0054
 Red. masses --     15.5196                16.2102                15.9381
 Frc consts  --      0.0236                 0.0315                 0.0373
 IR Inten    --      0.1986                 0.3447                 0.6427

                     10                     11                     12
                      A                      A                      A
 Frequencies --     65.6431                69.0011                72.7054
 Red. masses --     16.1408                17.1827                17.0337
 Frc consts  --      0.0410                 0.0482                 0.0531
 IR Inten    --      0.2312                 1.5846                 0.7601

                     13                     14                     15
                      A                      A                      A
 Frequencies --     76.3072                78.5710                81.4683
 Red. masses --     15.7000                15.9515                16.9292
 Frc consts  --      0.0539                 0.0580                 0.0662
 IR Inten    --      0.1807                 0.0432                 0.1773

                     16                     17                     18
                      A                      A                      A
 Frequencies --     86.0805                91.1754                94.8708
 Red. masses --     15.3477                16.1961                17.1965
 Frc consts  --      0.0670                 0.0793                 0.0912
 IR Inten    --      0.1096                 0.1462                 0.5383

                     19                     20                     21
                      A                      A                      A
 Frequencies --     99.6674               105.9574               106.4793
 Red. masses --     18.6587                13.5829                16.6201
 Frc consts  --      0.1092                 0.0898                 0.1110
 IR Inten    --      0.4769                 0.3434                 0.4149

                     22                     23                     24
                      A                      A                      A
 Frequencies --    111.2794               119.5440               122.7499
 Red. masses --     16.3340                17.2906                18.0893
 Frc consts  --      0.1192                 0.1456                 0.1606
 IR Inten    --      0.6468                 1.5473                 0.5045

                     25                     26                     27
                      A                      A                      A
 Frequencies --    125.0084               128.8984               135.7792
 Red. masses --     12.5088                25.7663                17.6526
 Frc consts  --      0.1152                 0.2522                 0.1917
 IR Inten    --      1.8960                 0.3870                 0.4247

                     28                     29                     30
                      A                      A                      A
 Frequencies --    139.5619               141.9278               154.1909
 Red. masses --     20.8365                19.1517                16.2865
 Frc consts  --      0.2391                 0.2273                 0.2281
 IR Inten    --      0.4828                 0.8347                 3.2325

                     31                     32                     33
                      A                      A                      A
 Frequencies --    162.2257               170.6872               183.9466
 Red. masses --     24.6378                14.9296                26.5429
 Frc consts  --      0.3820                 0.2563                 0.5292
 IR Inten    --      4.1016                 3.7205                 1.2172

                     34                     35                     36
                      A                      A                      A
 Frequencies --    184.7420               198.0782               200.6690
 Red. masses --     17.4636                22.1733                20.6366
 Frc consts  --      0.3512                 0.5126                 0.4896
 IR Inten    --      8.9252                 6.5730                 6.6785

                     37                     38                     39
                      A                      A                      A
 Frequencies --    212.5230               224.6539               228.5446
 Red. masses --     20.0658                25.3231                27.5722
 Frc consts  --      0.5340                 0.7530                 0.8485
 IR Inten    --      5.4666                 0.4467                 2.8140

                     40                     41                     42
                      A                      A                      A
 Frequencies --    233.4132               250.9355               253.7312
 Red. masses --     20.5970                25.7578                25.1704
 Frc consts  --      0.6612                 0.9556                 0.9547
 IR Inten    --      1.2821                 2.5671                10.3300

                     43                     44                     45
                      A                      A                      A
 Frequencies --    258.8265               264.0792               289.1397
 Red. masses --     20.8493                27.2855                30.3622
 Frc consts  --      0.8229                 1.1211                 1.4955
 IR Inten    --      2.3479                10.2428                 4.9367

                     46                     47                     48
                      A                      A                      A
 Frequencies --    304.4159               312.9573               314.1157
 Red. masses --     18.7542                25.0760                22.8595
 Frc consts  --      1.0240                 1.4470                 1.3289
 IR Inten    --      5.1255                 5.3353                 9.0470

                     49                     50                     51
                      A                      A                      A
 Frequencies --    321.1437               327.8810               334.3531
 Red. masses --     11.9711                21.7925                21.7141
 Frc consts  --      0.7274                 1.3804                 1.4302
 IR Inten    --      2.0946                11.4510                18.3046

                     52                     53                     54
                      A                      A                      A
 Frequencies --    340.2648               350.5616               357.6907
 Red. masses --     31.6301                12.6298                21.7919
 Frc consts  --      2.1577                 0.9145                 1.6427
 IR Inten    --      4.4075                 4.1072                 0.6917

                     55                     56                     57
                      A                      A                      A
 Frequencies --    368.4186               372.4407               378.8253
 Red. masses --     22.0253                24.8175                21.3611
 Frc consts  --      1.7614                 2.0283                 1.8061
 IR Inten    --      1.4966                 5.9731                 8.1739

                     58                     59                     60
                      A                      A                      A
 Frequencies --    384.7744               389.2798               393.2671
 Red. masses --     15.0346                14.3054                12.6254
 Frc consts  --      1.3115                 1.2772                 1.1505
 IR Inten    --     13.3608                 5.1886                45.5762

                     61                     62                     63
                      A                      A                      A
 Frequencies --    398.1300               399.5099               403.8539
 Red. masses --      3.3088                 8.4471                 3.6914
 Frc consts  --      0.3090                 0.7943                 0.3547
 IR Inten    --     13.0503                17.2139                33.7845

                     64                     65                     66
                      A                      A                      A
 Frequencies --    411.0766               422.0290               424.4656
 Red. masses --      7.0055                12.6229                12.2254
 Frc consts  --      0.6975                 1.3246                 1.2978
 IR Inten    --     26.1806                37.8372                13.0521

                     67                     68                     69
                      A                      A                      A
 Frequencies --    431.1711               432.3143               440.6572
 Red. masses --     13.2565                15.2355                13.9364
 Frc consts  --      1.4520                 1.6777                 1.5944
 IR Inten    --      1.7139                12.0385                10.8638

                     70                     71                     72
                      A                      A                      A
 Frequencies --    445.7126               454.9789               458.4931
 Red. masses --     15.4414                12.7367                12.5166
 Frc consts  --      1.8074                 1.5534                 1.5503
 IR Inten    --      7.8070                11.5005                 9.3042

                     73                     74                     75
                      A                      A                      A
 Frequencies --    463.3394               469.3685               469.8602
 Red. masses --      6.5507                10.1548                10.4979
 Frc consts  --      0.8286                 1.3181                 1.3655
 IR Inten    --      3.0913                60.0154                 3.5654

                     76                     77                     78
                      A                      A                      A
 Frequencies --    490.3076               495.1086               501.8495
 Red. masses --      5.6590                 8.1494                 6.8946
 Frc consts  --      0.8015                 1.1770                 1.0231
 IR Inten    --     11.4393                31.7174                11.3873

                     79                     80                     81
                      A                      A                      A
 Frequencies --    524.0005               546.6330               553.6766
 Red. masses --      1.4323                 1.4239                 7.2483
 Frc consts  --      0.2317                 0.2507                 1.3092
 IR Inten    --     21.3851                 5.1673                29.7749

                     82                     83                     84
                      A                      A                      A
 Frequencies --    560.7491               580.2411               586.3243
 Red. masses --      1.7636                 2.0709                 5.8254
 Frc consts  --      0.3267                 0.4108                 1.1799
 IR Inten    --     19.6496                14.8419                49.5872

                     85                     86                     87
                      A                      A                      A
 Frequencies --    588.2150               603.6531               611.3381
 Red. masses --      4.6524                 1.0876                 1.1041
 Frc consts  --      0.9484                 0.2335                 0.2431
 IR Inten    --     63.1167                 0.2081                 9.4047

                     88                     89                     90
                      A                      A                      A
 Frequencies --    632.4206               636.1606               649.4995
 Red. masses --      1.1020                 1.0637                 1.0585
 Frc consts  --      0.2597                 0.2536                 0.2631
 IR Inten    --      3.0377                13.2035                16.2063

                     91                     92                     93
                      A                      A                      A
 Frequencies --    658.6719               669.2765               680.3373
 Red. masses --      1.0655                 1.1699                 1.0779
 Frc consts  --      0.2724                 0.3087                 0.2939
 IR Inten    --     10.7836                12.4822                 5.4970

                     94                     95                     96
                      A                      A                      A
 Frequencies --    720.5273              1013.4712              1131.9426
 Red. masses --      1.0869                 1.0421                 1.0146
 Frc consts  --      0.3325                 0.6306                 0.7660
 IR Inten    --     20.0407                26.2584                29.3094

                     97                     98                     99
                      A                      A                      A
 Frequencies --   1175.8463              1428.8066              2017.0458
 Red. masses --      1.0194                 1.0293                13.3723
 Frc consts  --      0.8304                 1.2381                32.0545
 IR Inten    --     12.2663                97.3825               221.9455

                    100                    101                    102
                      A                      A                      A
 Frequencies --   2034.7715              2066.3348              2079.2922
 Red. masses --     13.3835                13.1893                13.3874
 Frc consts  --     32.6475                33.1799                34.1019
 IR Inten    --    926.2782              1242.8863               182.8252

                    103                    104                    105
                      A                      A                      A
 Frequencies --   2080.7314              2104.2966              2118.9263
 Red. masses --     13.3823                13.3731                13.3450
 Frc consts  --     34.1360                34.8896                35.3021
 IR Inten    --   1217.0595              3786.5140              1362.3472

                    106                    107                    108
                      A                      A                      A
 Frequencies --   2612.1328              2643.3510              2655.3644
 Red. masses --      1.0384                 1.0385                 1.0381
 Frc consts  --      4.1746                 4.2754                 4.3126
 IR Inten    --      3.6791                 5.1793                 1.6066

                    109                    110                    111
                      A                      A                      A
 Frequencies --   2658.9942              2670.1931              2681.4000
 Red. masses --      1.0387                 1.0385                 1.0385
 Frc consts  --      4.3270                 4.3628                 4.3993
 IR Inten    --      1.0402                 0.5231                 1.1162

 - Thermochemistry -
 -------------------
 Temperature   298.150 Kelvin.  Pressure   1.00000 Atm.
 Atom     1 has atomic number 42 and mass  97.90550

 Molecular mass:  1143.15279 amu.
 Principal axes and moments of inertia in atomic units:
                           1         2         3
     Eigenvalues --  ******************************
           X            0.22728   0.88772  -0.40037
           Y            0.96144  -0.13918   0.23719
           Z           -0.15484   0.43884   0.88513
 This molecule is an asymmetric top.
 Rotational symmetry number  1.
 Warning -- assumption of classical behavior for rotation
           may cause significant error
 Rotational temperatures (Kelvin)      0.00313     0.00274     0.00175
 Rotational constants (GHZ):           0.06512     0.05699     0.03637
    1 imaginary frequencies ignored.
 Zero-point vibrational energy     383531.0 (Joules/Mol)
                                   91.66610 (Kcal/Mol)
 Warning -- explicit consideration of  86 degrees of freedom as
           vibrations may cause significant error
 Vibrational temperatures:     39.80    47.85    52.94    63.79    68.71
          (Kelvin)             73.16    82.60    90.65    94.45    99.28
                              104.61   109.79   113.05   117.21   123.85
                              131.18   136.50   143.40   152.45   153.20
                              160.11   172.00   176.61   179.86   185.46
                              195.36   200.80   204.20   221.85   233.41
                              245.58   264.66   265.80   284.99   288.72
                              305.77   323.23   328.82   335.83   361.04
                              365.06   372.39   379.95   416.01   437.99
                              450.28   451.94   462.05   471.75   481.06
                              489.57   504.38   514.64   530.07   535.86
                              545.05   553.60   560.09   565.82   572.82
                              574.81   581.06   591.45   607.21   610.71
                              620.36   622.00   634.01   641.28   654.61
                              659.67   666.64   675.32   676.02   705.44
                              712.35   722.05   753.92   786.48   796.62
                              806.79   834.84   843.59   846.31   868.52
                              879.58   909.91   915.29   934.48   947.68
                              962.94   978.85  1036.68  1458.16  1628.61
                             1691.78  2055.73  2902.08  2927.58  2972.99
                             2991.64  2993.71  3027.61  3048.66  3758.28
                             3803.19  3820.48  3825.70  3841.81  3857.94

 Zero-point correction=                           0.146079 (Hartree/Particle)
 Thermal correction to Energy=                    0.191735
 Thermal correction to Enthalpy=                  0.192679
 Thermal correction to Gibbs Free Energy=         0.065471
 Sum of electronic and zero-point Energies=          -5583.840049
 Sum of electronic and thermal Energies=             -5583.794393
 Sum of electronic and thermal Enthalpies=           -5583.793449
 Sum of electronic and thermal Free Energies=        -5583.920657

                     E (Thermal)             CV                S
                      KCal/Mol        Cal/Mol-Kelvin    Cal/Mol-Kelvin
 Total                  120.316            155.092            267.732
 Electronic               0.000              0.000              0.000
 Translational            0.889              2.981             46.980
 Rotational               0.889              2.981             39.007
 Vibrational            118.538            149.130            181.745
 Vibration     1          0.593              1.984              5.990
 Vibration     2          0.594              1.983              5.625
 Vibration     3          0.594              1.982              5.425
 Vibration     4          0.595              1.980              5.055
 Vibration     5          0.595              1.978              4.908
 Vibration     6          0.595              1.977              4.784
 Vibration     7          0.596              1.975              4.544
 Vibration     8          0.597              1.972              4.361
 Vibration     9          0.597              1.971              4.280
 Vibration    10          0.598              1.969              4.182
 Vibration    11          0.599              1.967              4.079
 Vibration    12          0.599              1.965              3.984
 Vibration    13          0.600              1.964              3.926
 Vibration    14          0.600              1.962              3.855
 Vibration    15          0.601              1.959              3.747
 Vibration    16          0.602              1.955              3.635
 Vibration    17          0.603              1.953              3.557
 Vibration    18          0.604              1.949              3.461
 Vibration    19          0.605              1.944              3.342
 Vibration    20          0.605              1.944              3.332
 Vibration    21          0.607              1.940              3.246
 Vibration    22          0.609              1.933              3.108
 Vibration    23          0.610              1.930              3.057
 Vibration    24          0.610              1.928              3.021
 Vibration    25          0.611              1.924              2.962
 Vibration    26          0.614              1.918              2.863
 Vibration    27          0.615              1.914              2.810
 Vibration    28          0.615              1.911              2.778
 Vibration    29          0.620              1.898              2.620
 Vibration    30          0.622              1.889              2.524
 Vibration    31          0.626              1.879              2.428
 Vibration    32          0.631              1.862              2.288
 Vibration    33          0.631              1.861              2.280
 Vibration    34          0.637              1.843              2.151
 Vibration    35          0.638              1.839              2.127
 Vibration    36          0.644              1.822              2.022
 Vibration    37          0.649              1.804              1.921
 Vibration    38          0.651              1.797              1.890
 Vibration    39          0.654              1.790              1.853
 Vibration    40          0.663              1.761              1.724
 Vibration    41          0.665              1.756              1.705
 Vibration    42          0.668              1.748              1.670
 Vibration    43          0.671              1.739              1.635
 Vibration    44          0.686              1.694              1.479
 Vibration    45          0.695              1.665              1.393
 Vibration    46          0.701              1.649              1.347
 Vibration    47          0.702              1.647              1.341
 Vibration    48          0.707              1.633              1.304
 Vibration    49          0.711              1.620              1.271
 Vibration    50          0.716              1.607              1.239
 Vibration    51          0.720              1.595              1.211
 Vibration    52          0.727              1.574              1.164
 Vibration    53          0.733              1.559              1.132
 Vibration    54          0.741              1.537              1.086
 Vibration    55          0.744              1.529              1.070
 Vibration    56          0.749              1.515              1.044
 Vibration    57          0.754              1.503              1.020
 Vibration    58          0.757              1.493              1.003
 Vibration    59          0.760              1.485              0.988
 Vibration    60          0.764              1.474              0.970
 Vibration    61          0.766              1.471              0.964
 Vibration    62          0.769              1.462              0.949
 Vibration    63          0.775              1.446              0.923
 Vibration    64          0.784              1.422              0.885
 Vibration    65          0.786              1.417              0.877
 Vibration    66          0.792              1.402              0.855
 Vibration    67          0.793              1.400              0.851
 Vibration    68          0.801              1.381              0.825
 Vibration    69          0.805              1.370              0.809
 Vibration    70          0.813              1.350              0.781
 Vibration    71          0.817              1.342              0.771
 Vibration    72          0.821              1.331              0.756
 Vibration    73          0.826              1.318              0.739
 Vibration    74          0.827              1.317              0.738
 Vibration    75          0.846              1.272              0.683
 Vibration    76          0.851              1.261              0.670
 Vibration    77          0.857              1.246              0.654
 Vibration    78          0.879              1.197              0.601
 Vibration    79          0.902              1.147              0.551
 Vibration    80          0.909              1.132              0.537
 Vibration    81          0.916              1.116              0.522
 Vibration    82          0.937              1.074              0.485
 Vibration    83          0.943              1.061              0.474
 Vibration    84          0.945              1.057              0.470
 Vibration    85          0.962              1.024              0.443
 Vibration    86          0.970              1.008              0.431

                           ! Non-Optimized Parameters !
 Normal termination of Gaussian 16 at Tue May  3 23:34:22 2022.
