 Gaussian 16, Revision C.01,
 Gaussian 16:  ES64L-G16RevC.01  3-Jul-2019

 -----------------------------------------------------------
 # opt=(calcfc,ts,noeigen) freq b3lyp/gen nosymm pseudo=read
 -----------------------------------------------------------

 -------------------
 Title Card Required
 -------------------
 Symbolic Z-matrix:
 Charge =  0 Multiplicity = 1

 SCF Done:  E(RB3LYP) =  -5642.16356232     A.U. after   33 cycles
 SCF Done:  E(RB3LYP) =  -5642.17865896     A.U. after   21 cycles
 SCF Done:  E(RB3LYP) =  -5642.18161927     A.U. after   20 cycles
 SCF Done:  E(RB3LYP) =  -5642.18504840     A.U. after   21 cycles
 SCF Done:  E(RB3LYP) =  -5642.18546245     A.U. after   21 cycles
 SCF Done:  E(RB3LYP) =  -5642.18551476     A.U. after   21 cycles
 SCF Done:  E(RB3LYP) =  -5642.18503389     A.U. after   21 cycles
 SCF Done:  E(RB3LYP) =  -5642.18554301     A.U. after   21 cycles
 SCF Done:  E(RB3LYP) =  -5642.18547420     A.U. after   20 cycles
 SCF Done:  E(RB3LYP) =  -5642.18559908     A.U. after   19 cycles
 SCF Done:  E(RB3LYP) =  -5642.18560269     A.U. after   18 cycles
 SCF Done:  E(RB3LYP) =  -5642.18560351     A.U. after   16 cycles
 SCF Done:  E(RB3LYP) =  -5642.18560366     A.U. after   14 cycles
 Optimization completed.
    -- Stationary point found.
 Normal termination of Gaussian 16 at Thu May  5 13:55:48 2022.

 ------------------------------------------------------------------
 #N Geom=AllCheck Guess=TCheck SCRF=Check GenChk RB3LYP/ChkBas Freq
 ------------------------------------------------------------------

 Structure from the checkpoint file:  "/localscratch/chegho/Gau-110988.chk"
 -------------------
 Title Card Required
 -------------------
 Charge =  0 Multiplicity = 1

                          Input orientation:
 ---------------------------------------------------------------------
 Center     Atomic      Atomic             Coordinates (Angstroms)
 Number     Number       Type             X           Y           Z
 ---------------------------------------------------------------------
      1         42           0        0.493698    1.065684    9.787370
      2         16           0        0.601915    3.312844   10.765848
      3         16           0       -1.614216    1.040584   11.016043
      4         16           0       -0.011134    1.268215    7.484381
      5         16           0        0.984358   -1.308334    9.737684
      6         42           0       -2.054043    1.208287    8.665159
      7         16           0       -3.463829    1.911819    6.747684
      8          1           0       -2.941342    1.190688    5.732906
      9         16           0       -2.424680    3.600121    9.311533
     10         42           0       -0.272487    3.466017    8.410402
     11         16           0       -2.396922   -1.210468    7.982958
     12          1           0       -1.354031   -1.541972    7.184717
     13         16           0        3.009116    1.160059    8.931452
     14          1           0        3.664086    0.435414    9.872639
     15         16           0       -0.290000    4.041910    5.979642
     16         16           0        1.614998    5.169695    8.555526
     17          1           0        0.218387    5.292198    5.982771
     18         42           0       -1.213375   -1.079502   10.092074
     19         42           0       -2.570696    4.448437    6.974114
     20          6           0       -2.013179    6.286119    7.440421
     21          6           0       -4.471365    4.930803    7.547040
     22          6           0       -3.100761    5.030851    5.085301
     23          8           0       -1.684915    7.370136    7.701438
     24          8           0       -5.534555    5.245476    7.862111
     25          8           0       -3.415664    5.347363    4.022397
     26          1           0        2.953543    5.925884    7.823406
     27         42           0        2.742623    3.425677    9.601374
     28          6           0        3.561988    3.064034   11.382342
     29          8           0        4.001906    2.934233   12.443940
     30         16           0       -2.098028   -2.178669   11.951061
     31          1           0       -2.535896   -1.213413   12.785276
     32         16           0        4.730406    4.713477    9.097304
     33          1           0        5.086744    3.978880    8.013510
     34          1           0        3.868493    5.821859    8.071938
 ---------------------------------------------------------------------

 SCF Done:  E(RB3LYP) =  -5642.18560366     A.U. after    2 cycles

 Alpha  occ. eigenvalues --  -88.92247 -88.91732 -88.90985 -88.90694 -88.90621
 Alpha  occ. eigenvalues --  -88.89287 -88.88997 -88.88791 -88.88768 -88.88420
 Alpha  occ. eigenvalues --  -88.88205 -88.87153 -19.23990 -19.23384 -19.23028
 Alpha  occ. eigenvalues --  -19.20397 -10.31454 -10.30538 -10.30313 -10.28128
 Alpha  occ. eigenvalues --   -7.99836  -7.99438  -7.98497  -7.98169  -7.98155
 Alpha  occ. eigenvalues --   -7.97078  -7.96643  -7.96381  -7.96366  -7.95864
 Alpha  occ. eigenvalues --   -7.95621  -7.94767  -5.96031  -5.95873  -5.95679
 Alpha  occ. eigenvalues --   -5.95473  -5.95308  -5.95193  -5.94751  -5.94418
 Alpha  occ. eigenvalues --   -5.94234  -5.94207  -5.94149  -5.94131  -5.94125
 Alpha  occ. eigenvalues --   -5.94088  -5.94063  -5.93093  -5.93008  -5.92975
 Alpha  occ. eigenvalues --   -5.92896  -5.92727  -5.92525  -5.92470  -5.92347
 Alpha  occ. eigenvalues --   -5.92290  -5.92267  -5.92176  -5.92132  -5.92131
 Alpha  occ. eigenvalues --   -5.91780  -5.91684  -5.91653  -5.91609  -5.91450
 Alpha  occ. eigenvalues --   -5.91075  -5.90638  -5.90492  -2.55047  -2.53475
 Alpha  occ. eigenvalues --   -2.53265  -2.52555  -2.51994  -2.46827  -1.58227
 Alpha  occ. eigenvalues --   -1.57709  -1.57156  -1.56878  -1.55820  -1.55618
 Alpha  occ. eigenvalues --   -1.55428  -1.55156  -1.54937  -1.54769  -1.54658
 Alpha  occ. eigenvalues --   -1.54601  -1.54497  -1.54021  -1.53490  -1.49838
 Alpha  occ. eigenvalues --   -1.49443  -1.48762  -1.14078  -1.13534  -1.13228
 Alpha  occ. eigenvalues --   -1.10470  -0.77957  -0.77426  -0.76059  -0.74719
 Alpha  occ. eigenvalues --   -0.74309  -0.73587  -0.73015  -0.72538  -0.72148
 Alpha  occ. eigenvalues --   -0.71815  -0.70649  -0.70350  -0.57537  -0.56905
 Alpha  occ. eigenvalues --   -0.56021  -0.54348  -0.50937  -0.47314  -0.47063
 Alpha  occ. eigenvalues --   -0.46702  -0.46554  -0.46536  -0.45873  -0.45773
 Alpha  occ. eigenvalues --   -0.45680  -0.45525  -0.45213  -0.44971  -0.44473
 Alpha  occ. eigenvalues --   -0.44176  -0.43820  -0.43072  -0.42807  -0.42619
 Alpha  occ. eigenvalues --   -0.42121  -0.41506  -0.40586  -0.39945  -0.39627
 Alpha  occ. eigenvalues --   -0.39355  -0.38430  -0.37686  -0.37334  -0.36897
 Alpha  occ. eigenvalues --   -0.36683  -0.36207  -0.35915  -0.35057  -0.34852
 Alpha  occ. eigenvalues --   -0.34626  -0.34258  -0.33797  -0.32885  -0.32758
 Alpha  occ. eigenvalues --   -0.32625  -0.32425  -0.31887  -0.31387  -0.30712
 Alpha  occ. eigenvalues --   -0.30478  -0.30172  -0.29564  -0.28946  -0.28684
 Alpha  occ. eigenvalues --   -0.27928  -0.27339  -0.26266  -0.24463  -0.24106
 Alpha  occ. eigenvalues --   -0.23663  -0.22889  -0.22743  -0.21391  -0.20848
 Alpha virt. eigenvalues --   -0.15673  -0.15427  -0.14108  -0.13211  -0.12946
 Alpha virt. eigenvalues --   -0.12716  -0.11674  -0.10514  -0.10350  -0.09777
 Alpha virt. eigenvalues --   -0.09578  -0.09050  -0.07785  -0.07528  -0.07342

 Mulliken charges:
               1
     1  Mo  -0.253913
     2  S    0.134252
     3  S    0.167187
     4  S    0.251408
     5  S   -0.069775
     6  Mo  -0.207557
     7  S   -0.017176
     8  H    0.087742
     9  S    0.150025
    10  Mo  -0.276223
    11  S    0.001727
    12  H    0.134033
    13  S    0.012354
    14  H    0.098327
    15  S    0.090338
    16  S   -0.043100
    17  H    0.102161
    18  Mo  -0.052914
    19  Mo  -0.317227
    20  C    0.249324
    21  C    0.239689
    22  C    0.241478
    23  O   -0.277886
    24  O   -0.240755
    25  O   -0.239677
    26  H    0.025464
    27  Mo  -0.140700
    28  C    0.257735
    29  O   -0.238304
    30  S   -0.131888
    31  H    0.106295
    32  S    0.020105
    33  H    0.121736
    34  H    0.015715
 Sum of Mulliken charges =  -0.00000

 Dipole moment (field-independent basis, Debye):
    X=              4.0016    Y=             -4.6211    Z=             -0.7987  Tot=              6.1649
 Quadrupole moment (field-independent basis, Debye-Ang):
   XX=           -337.9438   YY=           -369.9549   ZZ=           -358.9138
   XY=             23.3506   XZ=             22.9720   YZ=            -40.7080

  Exact polarizability:     693.924      42.932     667.159     100.435    -151.803     505.973
 Approx polarizability:    1972.632      77.315    1861.566     314.166    -416.827    1445.918

 ******    1 imaginary frequencies (negative Signs) ******

                      1                      2                      3
                      A                      A                      A
 Frequencies --  -1217.4556                32.2252                38.6626
 Red. masses --      1.1004                14.5104                15.2153
 Frc consts  --      0.9610                 0.0089                 0.0134
 IR Inten    --   1216.5187                 0.2105                 0.0529

                      4                      5                      6
                      A                      A                      A
 Frequencies --     42.1616                42.4687                53.1406
 Red. masses --     16.8709                14.6606                12.7443
 Frc consts  --      0.0177                 0.0156                 0.0212
 IR Inten    --      0.2485                 0.7066                 2.0215

                      7                      8                      9
                      A                      A                      A
 Frequencies --     57.9644                61.9807                65.3488
 Red. masses --     17.4059                15.4835                13.9628
 Frc consts  --      0.0345                 0.0350                 0.0351
 IR Inten    --      0.0536                 0.2089                 0.3175

                     10                     11                     12
                      A                      A                      A
 Frequencies --     68.7114                75.1120                81.6970
 Red. masses --     15.5922                16.3590                17.7179
 Frc consts  --      0.0434                 0.0544                 0.0697
 IR Inten    --      0.1639                 2.6049                 0.0571

                     13                     14                     15
                      A                      A                      A
 Frequencies --     83.0596                85.8992                95.1050
 Red. masses --     17.1345                17.0814                16.3452
 Frc consts  --      0.0696                 0.0743                 0.0871
 IR Inten    --      0.5630                 1.2974                 1.6862

                     16                     17                     18
                      A                      A                      A
 Frequencies --     96.4045                98.8693               105.0057
 Red. masses --     12.4286                18.8477                21.3533
 Frc consts  --      0.0681                 0.1086                 0.1387
 IR Inten    --      1.0819                 0.4930                 1.2030

                     19                     20                     21
                      A                      A                      A
 Frequencies --    109.2354               112.5939               121.1365
 Red. masses --     14.5092                27.1781                12.3726
 Frc consts  --      0.1020                 0.2030                 0.1070
 IR Inten    --      0.3591                 0.4016                 0.8026

                     22                     23                     24
                      A                      A                      A
 Frequencies --    127.1788               129.3171               139.5705
 Red. masses --     23.3111                11.4273                20.2822
 Frc consts  --      0.2221                 0.1126                 0.2328
 IR Inten    --      2.5348                 6.3661                 2.4005

                     25                     26                     27
                      A                      A                      A
 Frequencies --    144.8529               157.1432               161.4477
 Red. masses --     23.5765                21.2712                14.3970
 Frc consts  --      0.2915                 0.3095                 0.2211
 IR Inten    --      0.6108                 6.0782                 0.0816

                     28                     29                     30
                      A                      A                      A
 Frequencies --    170.1543               178.8188               182.5773
 Red. masses --     17.0969                25.2732                 6.4627
 Frc consts  --      0.2916                 0.4761                 0.1269
 IR Inten    --     12.5474                 2.2630                 2.4635

                     31                     32                     33
                      A                      A                      A
 Frequencies --    196.7144               209.4770               216.4169
 Red. masses --     13.7945                 4.5998                10.2659
 Frc consts  --      0.3145                 0.1189                 0.2833
 IR Inten    --      0.6677                 0.2190                 3.5339

                     34                     35                     36
                      A                      A                      A
 Frequencies --    223.0157               231.0499               247.6339
 Red. masses --      2.4065                12.7518                21.5093
 Frc consts  --      0.0705                 0.4011                 0.7771
 IR Inten    --      9.1702                 0.9803                 2.0699

                     37                     38                     39
                      A                      A                      A
 Frequencies --    262.1055               263.3673               279.7512
 Red. masses --     17.3077                18.5851                20.0067
 Frc consts  --      0.7006                 0.7595                 0.9225
 IR Inten    --      5.6125                 4.3161                 1.0562

                     40                     41                     42
                      A                      A                      A
 Frequencies --    291.1083               294.8426               304.3323
 Red. masses --     24.0991                12.9411                14.0512
 Frc consts  --      1.2033                 0.6628                 0.7668
 IR Inten    --      7.6420                 5.5573                 0.2768

                     43                     44                     45
                      A                      A                      A
 Frequencies --    310.3006               318.8903               322.1570
 Red. masses --     13.9269                 8.6583                 3.0695
 Frc consts  --      0.7901                 0.5188                 0.1877
 IR Inten    --     10.9022                 8.6397                28.5627

                     46                     47                     48
                      A                      A                      A
 Frequencies --    329.0135               332.3591               336.5618
 Red. masses --      5.3409                 6.6308                19.1332
 Frc consts  --      0.3406                 0.4316                 1.2769
 IR Inten    --      2.8961                 5.5795                25.8205

                     49                     50                     51
                      A                      A                      A
 Frequencies --    347.5157               351.2252               356.8655
 Red. masses --     22.4463                27.4417                 9.4950
 Frc consts  --      1.5971                 1.9945                 0.7124
 IR Inten    --      6.6199                 3.5449                 2.6578

                     52                     53                     54
                      A                      A                      A
 Frequencies --    365.5411               371.5971               373.2626
 Red. masses --     21.0965                14.5050                26.5985
 Frc consts  --      1.6609                 1.1801                 2.1834
 IR Inten    --      1.7739                13.2851                55.1084

                     55                     56                     57
                      A                      A                      A
 Frequencies --    386.3367               388.1721               396.4833
 Red. masses --     17.0650                16.0044                17.7682
 Frc consts  --      1.5007                 1.4208                 1.6457
 IR Inten    --      4.0079                12.7797                31.5487

                     58                     59                     60
                      A                      A                      A
 Frequencies --    409.8151               429.5305               432.1645
 Red. masses --     15.1858                 7.2049                29.3411
 Frc consts  --      1.5027                 0.7832                 3.2287
 IR Inten    --     64.7708                 0.4942                 4.4583

                     61                     62                     63
                      A                      A                      A
 Frequencies --    441.0369               452.3500               452.4363
 Red. masses --     17.0999                11.9227                 9.4866
 Frc consts  --      1.9597                 1.4374                 1.1441
 IR Inten    --     10.1176                10.9104                41.9752

                     64                     65                     66
                      A                      A                      A
 Frequencies --    460.7944               462.8105               469.1718
 Red. masses --     14.5407                12.9950                 5.5438
 Frc consts  --      1.8191                 1.6400                 0.7190
 IR Inten    --      8.2767                18.6402                 1.3998

                     67                     68                     69
                      A                      A                      A
 Frequencies --    479.0799               496.5118               501.0328
 Red. masses --      9.1085                 7.4777                 1.6915
 Frc consts  --      1.2317                 1.0861                 0.2502
 IR Inten    --     19.6717                 1.6895                12.5695

                     70                     71                     72
                      A                      A                      A
 Frequencies --    509.1696               547.7806               563.0665
 Red. masses --      4.9080                 1.1262                 1.3237
 Frc consts  --      0.7497                 0.1991                 0.2473
 IR Inten    --     14.2636                15.7992                21.0116

                     73                     74                     75
                      A                      A                      A
 Frequencies --    575.7739               590.3914               611.5120
 Red. masses --      4.4320                 3.5689                 1.0925
 Frc consts  --      0.8657                 0.7329                 0.2407
 IR Inten    --     31.1478                37.3549                 6.8025

                     76                     77                     78
                      A                      A                      A
 Frequencies --    619.5572               623.2818               626.0220
 Red. masses --      1.1590                 1.1022                 1.2591
 Frc consts  --      0.2621                 0.2523                 0.2907
 IR Inten    --      8.5061                17.1455                12.9686

                     79                     80                     81
                      A                      A                      A
 Frequencies --    632.7085               663.4602               686.1527
 Red. masses --      1.0790                 1.0685                 1.0743
 Frc consts  --      0.2545                 0.2771                 0.2980
 IR Inten    --      1.6930                16.6011                 4.2804

                     82                     83                     84
                      A                      A                      A
 Frequencies --    704.2162               965.4496              1081.9712
 Red. masses --      1.0791                 1.0524                 1.0114
 Frc consts  --      0.3153                 0.5780                 0.6976
 IR Inten    --     15.6404                44.6003                24.1861

                     85                     86                     87
                      A                      A                      A
 Frequencies --   1123.9543              1580.4405              2004.4488
 Red. masses --      1.0191                 1.0258                13.3599
 Frc consts  --      0.7585                 1.5097                31.6260
 IR Inten    --      4.0751               144.4782               602.4270

                     88                     89                     90
                      A                      A                      A
 Frequencies --   2047.0903              2063.6454              2092.9750
 Red. masses --     12.9681                13.3866                13.3337
 Frc consts  --     32.0185                33.5884                34.4136
 IR Inten    --   1847.5976               620.7996              2778.3376

                     91                     92                     93
                      A                      A                      A
 Frequencies --   2590.9256              2618.2349              2618.4647
 Red. masses --      1.0389                 1.0381                 1.0384
 Frc consts  --      4.1089                 4.1927                 4.1948
 IR Inten    --      9.7148                 0.3589                 9.4525

                     94                     95                     96
                      A                      A                      A
 Frequencies --   2655.1049              2659.9051              2676.9428
 Red. masses --      1.0388                 1.0381                 1.0386
 Frc consts  --      4.3148                 4.3274                 4.3850
 IR Inten    --      3.2407                 3.7852                 0.0965

 - Thermochemistry -
 -------------------
 Temperature   298.150 Kelvin.  Pressure   1.00000 Atm.
 Atom     1 has atomic number 42 and mass  97.90550

 Molecular mass:  1091.14012 amu.
 Principal axes and moments of inertia in atomic units:
                           1         2         3
     Eigenvalues --  ******************************
           X           -0.49014   0.79961  -0.34696
           Y            0.68660   0.59940   0.41145
           Z           -0.53697   0.03656   0.84281
 This molecule is an asymmetric top.
 Rotational symmetry number  1.
 Warning -- assumption of classical behavior for rotation
           may cause significant error
 Rotational temperatures (Kelvin)      0.00352     0.00311     0.00193
 Rotational constants (GHZ):           0.07334     0.06475     0.04019
    1 imaginary frequencies ignored.
 Zero-point vibrational energy     319662.0 (Joules/Mol)
                                   76.40106 (Kcal/Mol)
 Warning -- explicit consideration of  75 degrees of freedom as
           vibrations may cause significant error
 Vibrational temperatures:     46.36    55.63    60.66    61.10    76.46
          (Kelvin)             83.40    89.18    94.02    98.86   108.07
                              117.54   119.50   123.59   136.83   138.70
                              142.25   151.08   157.17   162.00   174.29
                              182.98   186.06   200.81   208.41   226.09
                              232.29   244.81   257.28   262.69   283.03
                              301.39   311.38   320.87   332.43   356.29
                              377.11   378.93   402.50   418.84   424.21
                              437.87   446.45   458.81   463.51   473.38
                              478.19   484.24   500.00   505.33   513.45
                              525.93   534.65   537.04   555.85   558.49
                              570.45   589.63   618.00   621.79   634.55
                              650.83   650.95   662.98   665.88   675.03
                              689.29   714.37   720.87   732.58   788.13
                              810.13   828.41   849.44   879.83   891.40
                              896.76   900.71   910.33   954.57   987.22
                             1013.21  1389.07  1556.72  1617.12  2273.90
                             2883.95  2945.31  2969.13  3011.32  3727.76
                             3767.06  3767.39  3820.10  3827.01  3851.52

 Zero-point correction=                           0.121753 (Hartree/Particle)
 Thermal correction to Energy=                    0.162406
 Thermal correction to Enthalpy=                  0.163350
 Thermal correction to Gibbs Free Energy=         0.046886
 Sum of electronic and zero-point Energies=          -5642.063851
 Sum of electronic and thermal Energies=             -5642.023198
 Sum of electronic and thermal Enthalpies=           -5642.022254
 Sum of electronic and thermal Free Energies=        -5642.138718

                     E (Thermal)             CV                S
                      KCal/Mol        Cal/Mol-Kelvin    Cal/Mol-Kelvin
 Total                  101.911            137.234            245.119
 Electronic               0.000              0.000              0.000
 Translational            0.889              2.981             46.842
 Rotational               0.889              2.981             38.663
 Vibrational            100.134            131.272            159.614
 Vibration     1          0.594              1.983              5.687
 Vibration     2          0.594              1.981              5.326
 Vibration     3          0.595              1.980              5.155
 Vibration     4          0.595              1.980              5.140
 Vibration     5          0.596              1.976              4.697
 Vibration     6          0.596              1.974              4.525
 Vibration     7          0.597              1.972              4.393
 Vibration     8          0.597              1.971              4.289
 Vibration     9          0.598              1.969              4.190
 Vibration    10          0.599              1.966              4.015
 Vibration    11          0.600              1.962              3.850
 Vibration    12          0.600              1.961              3.817
 Vibration    13          0.601              1.959              3.751
 Vibration    14          0.603              1.953              3.552
 Vibration    15          0.603              1.952              3.526
 Vibration    16          0.604              1.950              3.476
 Vibration    17          0.605              1.945              3.359
 Vibration    18          0.606              1.942              3.282
 Vibration    19          0.607              1.939              3.224
 Vibration    20          0.609              1.932              3.082
 Vibration    21          0.611              1.926              2.988
 Vibration    22          0.612              1.924              2.956
 Vibration    23          0.615              1.914              2.810
 Vibration    24          0.616              1.908              2.739
 Vibration    25          0.621              1.895              2.584
 Vibration    26          0.622              1.890              2.533
 Vibration    27          0.625              1.879              2.434
 Vibration    28          0.629              1.868              2.341
 Vibration    29          0.630              1.863              2.302
 Vibration    30          0.636              1.844              2.164
 Vibration    31          0.642              1.826              2.048
 Vibration    32          0.645              1.816              1.989
 Vibration    33          0.649              1.806              1.934
 Vibration    34          0.653              1.794              1.871
 Vibration    35          0.661              1.767              1.747
 Vibration    36          0.669              1.742              1.648
 Vibration    37          0.670              1.740              1.639
 Vibration    38          0.680              1.711              1.535
 Vibration    39          0.687              1.690              1.468
 Vibration    40          0.689              1.683              1.446
 Vibration    41          0.695              1.665              1.393
 Vibration    42          0.699              1.654              1.361
 Vibration    43          0.705              1.637              1.316
 Vibration    44          0.707              1.631              1.299
 Vibration    45          0.712              1.618              1.265
 Vibration    46          0.714              1.611              1.249
 Vibration    47          0.717              1.602              1.228
 Vibration    48          0.725              1.580              1.177
 Vibration    49          0.728              1.573              1.161
 Vibration    50          0.732              1.561              1.136
 Vibration    51          0.739              1.543              1.098
 Vibration    52          0.743              1.531              1.073
 Vibration    53          0.745              1.527              1.066
 Vibration    54          0.755              1.499              1.014
 Vibration    55          0.756              1.495              1.007
 Vibration    56          0.763              1.478              0.976
 Vibration    57          0.774              1.449              0.927
 Vibration    58          0.791              1.406              0.860
 Vibration    59          0.793              1.400              0.852
 Vibration    60          0.801              1.381              0.823
 Vibration    61          0.811              1.356              0.789
 Vibration    62          0.811              1.356              0.788
 Vibration    63          0.819              1.337              0.764
 Vibration    64          0.820              1.333              0.758
 Vibration    65          0.826              1.318              0.740
 Vibration    66          0.836              1.296              0.713
 Vibration    67          0.852              1.258              0.667
 Vibration    68          0.856              1.248              0.656
 Vibration    69          0.864              1.230              0.636
 Vibration    70          0.903              1.145              0.549
 Vibration    71          0.919              1.111              0.518
 Vibration    72          0.932              1.084              0.493
 Vibration    73          0.948              1.052              0.466
 Vibration    74          0.971              1.007              0.430
 Vibration    75          0.980              0.991              0.417

 Optimization completed.
    -- Stationary point found.
 Normal termination of Gaussian 16 at Thu May  5 14:04:50 2022.
