 Gaussian 16, Revision C.01,
 Gaussian 16:  ES64L-G16RevC.01  3-Jul-2019

 -----------------------------------------------------------
 # opt=(calcfc,ts,noeigen) freq b3lyp/gen nosymm pseudo=read
 -----------------------------------------------------------

 -------------------
 Title Card Required
 -------------------
 Symbolic Z-matrix:
 Charge =  0 Multiplicity = 1

 SCF Done:  E(RB3LYP) =  -5700.37002485     A.U. after   33 cycles
 SCF Done:  E(RB3LYP) =  -5700.37158170     A.U. after   22 cycles
 SCF Done:  E(RB3LYP) =  -5700.37252478     A.U. after   21 cycles
 SCF Done:  E(RB3LYP) =  -5700.37289706     A.U. after   21 cycles
 SCF Done:  E(RB3LYP) =  -5700.37231154     A.U. after   21 cycles
 SCF Done:  E(RB3LYP) =  -5700.37244182     A.U. after   20 cycles
 SCF Done:  E(RB3LYP) =  -5700.37296224     A.U. after   21 cycles
 SCF Done:  E(RB3LYP) =  -5700.37300994     A.U. after   19 cycles
 SCF Done:  E(RB3LYP) =  -5700.37301238     A.U. after   16 cycles
 SCF Done:  E(RB3LYP) =  -5700.37301344     A.U. after   14 cycles
 SCF Done:  E(RB3LYP) =  -5700.37301391     A.U. after   17 cycles
 SCF Done:  E(RB3LYP) =  -5700.37301414     A.U. after   15 cycles
 SCF Done:  E(RB3LYP) =  -5700.37301421     A.U. after   13 cycles
 Optimization completed.
    -- Stationary point found.
 Normal termination of Gaussian 16 at Fri May  6 00:18:20 2022.

 ------------------------------------------------------------------
 #N Geom=AllCheck Guess=TCheck SCRF=Check GenChk RB3LYP/ChkBas Freq
 ------------------------------------------------------------------

 Structure from the checkpoint file:  "/localscratch/chegho/Gau-8160.chk"
 -------------------
 Title Card Required
 -------------------
 Charge =  0 Multiplicity = 1

                          Input orientation:
 ---------------------------------------------------------------------
 Center     Atomic      Atomic             Coordinates (Angstroms)
 Number     Number       Type             X           Y           Z
 ---------------------------------------------------------------------
      1         42           0        0.629645    0.836651    9.577011
      2         16           0        0.994614    3.022675   10.580233
      3         16           0       -1.508315    1.027684   10.676279
      4         16           0        0.285706    1.104460    7.261459
      5         16           0        0.884313   -1.561298    9.431954
      6         42           0       -1.816334    1.440698    8.377898
      7         16           0       -3.808233    2.369587    7.115567
      8          1           0       -4.732346    2.515543    5.717523
      9         16           0       -1.783807    3.853131    9.080191
     10         42           0        0.383634    3.290342    8.145337
     11         16           0       -2.474376   -0.854098    7.480862
     12          1           0       -1.467506   -1.252530    6.667946
     13         16           0        3.439337    0.841716    9.505899
     14          1           0        3.342789    0.556373   10.828035
     15         16           0       -0.148203    3.794733    5.620963
     16         16           0        2.519126    3.977562    7.324343
     17          1           0        0.377324    5.022011    5.391403
     18         42           0       -1.311365   -1.070687    9.608090
     19         42           0       -2.246617    4.037513    6.719028
     20          6           0       -2.065393    6.011156    7.040824
     21          8           0       -2.053858    7.145118    7.262629
     22         42           0        2.961917    3.165392    9.369184
     23         16           0       -2.433548   -2.135699   11.355104
     24          1           0       -2.689450   -1.197297   12.289763
     25         16           0        4.191024    4.623335   10.653065
     26          1           0        5.431328    4.489809   10.109445
     27         16           0       -3.700289    4.613911    4.850032
     28          1           0       -4.704654    3.258594    5.079886
     29          1           0       -3.029215    3.981627    3.858079
 ---------------------------------------------------------------------

 SCF Done:  E(RB3LYP) =  -5700.37301421     A.U. after    3 cycles

 Alpha  occ. eigenvalues --  -88.91703 -88.90501 -88.90226 -88.90155 -88.90133
 Alpha  occ. eigenvalues --  -88.89679 -88.88716 -88.88632 -88.88450 -88.87876
 Alpha  occ. eigenvalues --  -88.87776 -88.87441 -88.87037 -19.23814 -10.31196
 Alpha  occ. eigenvalues --   -7.99282  -7.98152  -7.97737  -7.97692  -7.97609
 Alpha  occ. eigenvalues --   -7.97320  -7.96207  -7.96094  -7.96018  -7.95727
 Alpha  occ. eigenvalues --   -7.95567  -7.95223  -7.94794  -5.95471  -5.95352
 Alpha  occ. eigenvalues --   -5.94900  -5.94401  -5.94027  -5.93947  -5.93908
 Alpha  occ. eigenvalues --   -5.93767  -5.93685  -5.93640  -5.93619  -5.93603
 Alpha  occ. eigenvalues --   -5.93574  -5.93571  -5.93558  -5.93428  -5.93153
 Alpha  occ. eigenvalues --   -5.93111  -5.92424  -5.92252  -5.92200  -5.92085
 Alpha  occ. eigenvalues --   -5.92075  -5.91988  -5.91977  -5.91918  -5.91905
 Alpha  occ. eigenvalues --   -5.91846  -5.91612  -5.91570  -5.91506  -5.91469
 Alpha  occ. eigenvalues --   -5.91422  -5.91257  -5.91146  -5.91112  -5.91070
 Alpha  occ. eigenvalues --   -5.90633  -5.90530  -2.53730  -2.52598  -2.52229
 Alpha  occ. eigenvalues --   -2.52136  -2.51732  -2.51280  -1.57033  -1.56549
 Alpha  occ. eigenvalues --   -1.56141  -1.55975  -1.55778  -1.54909  -1.54693
 Alpha  occ. eigenvalues --   -1.54541  -1.54256  -1.54251  -1.54186  -1.54063
 Alpha  occ. eigenvalues --   -1.53913  -1.53684  -1.53500  -1.53440  -1.52862
 Alpha  occ. eigenvalues --   -1.52683  -1.13900  -0.77498  -0.76179  -0.75347
 Alpha  occ. eigenvalues --   -0.75019  -0.73972  -0.73096  -0.72714  -0.72288
 Alpha  occ. eigenvalues --   -0.71821  -0.71454  -0.70771  -0.70091  -0.69745
 Alpha  occ. eigenvalues --   -0.57259  -0.50680  -0.46731  -0.46351  -0.46280
 Alpha  occ. eigenvalues --   -0.45821  -0.45325  -0.44537  -0.44107  -0.43690
 Alpha  occ. eigenvalues --   -0.42001  -0.41294  -0.40397  -0.39957  -0.39635
 Alpha  occ. eigenvalues --   -0.38925  -0.38718  -0.38141  -0.37566  -0.36548
 Alpha  occ. eigenvalues --   -0.36459  -0.36053  -0.35733  -0.35573  -0.35415
 Alpha  occ. eigenvalues --   -0.34789  -0.34235  -0.33926  -0.33626  -0.33206
 Alpha  occ. eigenvalues --   -0.32847  -0.32751  -0.32095  -0.32001  -0.31689
 Alpha  occ. eigenvalues --   -0.31152  -0.30844  -0.30639  -0.30219  -0.29807
 Alpha  occ. eigenvalues --   -0.28997  -0.28502  -0.28233  -0.27559  -0.26942
 Alpha  occ. eigenvalues --   -0.26101  -0.24185  -0.23468  -0.23135  -0.22188
 Alpha  occ. eigenvalues --   -0.21695  -0.20163
 Alpha virt. eigenvalues --   -0.14872  -0.13888  -0.12984  -0.12668  -0.12202
 Alpha virt. eigenvalues --   -0.11819  -0.11178  -0.10588  -0.10489  -0.09949
 Alpha virt. eigenvalues --   -0.09763  -0.09046  -0.08494  -0.07699  -0.07048

 Mulliken charges:
               1
     1  Mo  -0.165881
     2  S    0.111001
     3  S    0.141511
     4  S    0.232492
     5  S   -0.065778
     6  Mo  -0.194216
     7  S   -0.067660
     8  H    0.030790
     9  S    0.123843
    10  Mo  -0.339775
    11  S   -0.003748
    12  H    0.123792
    13  S   -0.046512
    14  H    0.107521
    15  S    0.045602
    16  S   -0.101777
    17  H    0.104081
    18  Mo  -0.029313
    19  Mo  -0.182665
    20  C    0.252536
    21  O   -0.233006
    22  Mo   0.106943
    23  S   -0.133850
    24  H    0.099802
    25  S   -0.134172
    26  H    0.068943
    27  S    0.015517
    28  H    0.011107
    29  H    0.122872
 Sum of Mulliken charges =  -0.00000

 Dipole moment (field-independent basis, Debye):
    X=             -0.1638    Y=             -1.5092    Z=             -2.7992  Tot=              3.1844
 Quadrupole moment (field-independent basis, Debye-Ang):
   XX=           -318.0165   YY=           -340.0893   ZZ=           -354.6385
   XY=              0.8373   XZ=              5.8080   YZ=            -24.9161

  Exact polarizability:     639.836      59.286     623.002     120.233    -124.576     489.179
 Approx polarizability:    1873.161     177.895    1873.428     315.753    -341.232    1358.199

 ******    1 imaginary frequencies (negative Signs) ******

                      1                      2                      3
                      A                      A                      A
 Frequencies --  -1354.6201                38.0815                43.9572
 Red. masses --      1.0783                14.9338                13.6529
 Frc consts  --      1.1658                 0.0128                 0.0155
 IR Inten    --   1941.8328                 0.9221                 0.5184

                      4                      5                      6
                      A                      A                      A
 Frequencies --     45.7541                53.3849                58.4146
 Red. masses --     16.7736                18.7430                14.3682
 Frc consts  --      0.0207                 0.0315                 0.0289
 IR Inten    --      0.5028                 0.4714                 0.4408

                      7                      8                      9
                      A                      A                      A
 Frequencies --     60.7764                76.0349                78.9984
 Red. masses --     14.0295                24.6802                16.2988
 Frc consts  --      0.0305                 0.0841                 0.0599
 IR Inten    --      1.1503                 0.4053                 0.3268

                     10                     11                     12
                      A                      A                      A
 Frequencies --     84.1297                87.2161                91.0463
 Red. masses --     17.0126                26.1509                14.5683
 Frc consts  --      0.0709                 0.1172                 0.0712
 IR Inten    --      0.1138                 3.2298                 0.9549

                     13                     14                     15
                      A                      A                      A
 Frequencies --     95.4796               105.7869               113.5309
 Red. masses --     15.0422                20.4995                19.6903
 Frc consts  --      0.0808                 0.1352                 0.1495
 IR Inten    --      0.3293                 0.1375                 1.3851

                     16                     17                     18
                      A                      A                      A
 Frequencies --    117.4782               124.5515               125.3274
 Red. masses --     19.7962                22.6156                22.6695
 Frc consts  --      0.1610                 0.2067                 0.2098
 IR Inten    --      0.6273                 1.0385                 0.8059

                     19                     20                     21
                      A                      A                      A
 Frequencies --    133.4896               139.9629               142.4258
 Red. masses --     13.5152                21.9997                21.9745
 Frc consts  --      0.1419                 0.2539                 0.2626
 IR Inten    --      0.3793                 0.2995                 1.9410

                     22                     23                     24
                      A                      A                      A
 Frequencies --    152.2934               162.1872               164.0363
 Red. masses --     18.7456                17.5220                21.2329
 Frc consts  --      0.2562                 0.2716                 0.3366
 IR Inten    --      0.7205                 2.4234                 3.3410

                     25                     26                     27
                      A                      A                      A
 Frequencies --    173.0351               179.3612               194.2560
 Red. masses --     21.9503                27.5881                12.9527
 Frc consts  --      0.3872                 0.5229                 0.2880
 IR Inten    --      1.5166                 0.4215                 1.9777

                     28                     29                     30
                      A                      A                      A
 Frequencies --    205.2106               221.4120               231.2880
 Red. masses --      3.5254                 3.4744                 3.7251
 Frc consts  --      0.0875                 0.1004                 0.1174
 IR Inten    --      6.3432                 8.2088                 1.7843

                     31                     32                     33
                      A                      A                      A
 Frequencies --    236.6539               250.7845               262.1936
 Red. masses --     14.1144                 9.2982                29.0205
 Frc consts  --      0.4657                 0.3445                 1.1754
 IR Inten    --      0.4910                 7.6891                 4.6396

                     34                     35                     36
                      A                      A                      A
 Frequencies --    277.6870               291.0886               307.3859
 Red. masses --     32.0296                13.6874                25.1110
 Frc consts  --      1.4552                 0.6833                 1.3979
 IR Inten    --      2.8875                 6.5495                 6.8126

                     37                     38                     39
                      A                      A                      A
 Frequencies --    313.7921               321.5746               325.9667
 Red. masses --     18.9637                11.9479                 3.7024
 Frc consts  --      1.1002                 0.7280                 0.2318
 IR Inten    --      1.4348                 2.9650                13.1573

                     40                     41                     42
                      A                      A                      A
 Frequencies --    330.6150               331.1393               335.9877
 Red. masses --     10.0648                 2.2261                 9.3070
 Frc consts  --      0.6482                 0.1438                 0.6190
 IR Inten    --      7.4723                23.1519                 4.2622

                     43                     44                     45
                      A                      A                      A
 Frequencies --    338.2655               353.8867               357.7854
 Red. masses --     16.1663                25.4091                14.8799
 Frc consts  --      1.0899                 1.8749                 1.1223
 IR Inten    --      3.2025                 9.5282                 1.0751

                     46                     47                     48
                      A                      A                      A
 Frequencies --    361.9392               364.5383               372.2447
 Red. masses --     35.1065                 1.5386                21.3456
 Frc consts  --      2.7096                 0.1205                 1.7427
 IR Inten    --     16.0674                33.0410                22.7504

                     49                     50                     51
                      A                      A                      A
 Frequencies --    374.1620               379.6853               386.1816
 Red. masses --     20.1847                27.7690                 6.7408
 Frc consts  --      1.6649                 2.3586                 0.5923
 IR Inten    --     27.9310                13.3890                29.5690

                     52                     53                     54
                      A                      A                      A
 Frequencies --    394.0005               413.3938               430.8575
 Red. masses --     13.6074                24.4381                25.9885
 Frc consts  --      1.2446                 2.4606                 2.8425
 IR Inten    --      6.0250                 3.5609                 0.2736

                     55                     56                     57
                      A                      A                      A
 Frequencies --    440.0343               444.0179               454.5468
 Red. masses --     18.2051                12.1812                14.0928
 Frc consts  --      2.0769                 1.4150                 1.7156
 IR Inten    --      4.3930                57.1055                 6.0419

                     58                     59                     60
                      A                      A                      A
 Frequencies --    456.9655               460.3490               491.8506
 Red. masses --     12.7542                 5.9497                 9.3302
 Frc consts  --      1.5692                 0.7429                 1.3299
 IR Inten    --     19.9290                 0.6627                 3.4233

                     61                     62                     63
                      A                      A                      A
 Frequencies --    517.3363               557.4838               570.7298
 Red. masses --      1.0935                 1.2128                 1.0772
 Frc consts  --      0.1724                 0.2221                 0.2067
 IR Inten    --     19.5824                11.6449                 5.2501

                     64                     65                     66
                      A                      A                      A
 Frequencies --    624.5191               633.4407               637.0818
 Red. masses --      1.0657                 1.0541                 1.0592
 Frc consts  --      0.2449                 0.2492                 0.2533
 IR Inten    --     10.2784                13.9775                 2.9633

                     67                     68                     69
                      A                      A                      A
 Frequencies --    640.7367               668.6187               670.0321
 Red. masses --      1.0797                 1.0824                 1.0863
 Frc consts  --      0.2612                 0.2851                 0.2873
 IR Inten    --     15.0526                 8.0243                 8.6239

                     70                     71                     72
                      A                      A                      A
 Frequencies --    691.0865               989.8653              1105.1981
 Red. masses --      1.0602                 1.0458                 1.0131
 Frc consts  --      0.2983                 0.6037                 0.7291
 IR Inten    --      5.7729                17.1234                23.7578

                     73                     74                     75
                      A                      A                      A
 Frequencies --   1145.5573              1462.4797              2051.1037
 Red. masses --      1.0238                 1.0264                13.1275
 Frc consts  --      0.7916                 1.2934                32.5393
 IR Inten    --     36.1329                74.7112              1341.1468

                     76                     77                     78
                      A                      A                      A
 Frequencies --   2567.8231              2600.9096              2610.7163
 Red. masses --      1.0382                 1.0382                 1.0389
 Frc consts  --      4.0335                 4.1379                 4.1721
 IR Inten    --     36.4573                 3.8834                 6.6031

                     79                     80                     81
                      A                      A                      A
 Frequencies --   2620.6459              2637.5005              2673.3093
 Red. masses --      1.0384                 1.0382                 1.0386
 Frc consts  --      4.2016                 4.2553                 4.3734
 IR Inten    --      7.7033                 0.7577                 0.3432

 - Thermochemistry -
 -------------------
 Temperature   298.150 Kelvin.  Pressure   1.00000 Atm.
 Atom     1 has atomic number 42 and mass  97.90550

 Molecular mass:  1039.12745 amu.
 Principal axes and moments of inertia in atomic units:
                           1         2         3
     Eigenvalues --  ******************************
           X           -0.48645   0.79066  -0.37178
           Y            0.66385   0.61113   0.43108
           Z           -0.56805   0.03711   0.82216
 This molecule is an asymmetric top.
 Rotational symmetry number  1.
 Warning -- assumption of classical behavior for rotation
           may cause significant error
 Rotational temperatures (Kelvin)      0.00401     0.00374     0.00225
 Rotational constants (GHZ):           0.08353     0.07796     0.04680
    1 imaginary frequencies ignored.
 Zero-point vibrational energy     257404.4 (Joules/Mol)
                                   61.52113 (Kcal/Mol)
 Warning -- explicit consideration of  62 degrees of freedom as
           vibrations may cause significant error
 Vibrational temperatures:     54.79    63.24    65.83    76.81    84.05
          (Kelvin)             87.44   109.40   113.66   121.04   125.48
                              131.00   137.37   152.20   163.35   169.02
                              179.20   180.32   192.06   201.38   204.92
                              219.12   233.35   236.01   248.96   258.06
                              279.49   295.25   318.56   332.77   340.49
                              360.82   377.24   399.53   418.81   442.26
                              451.48   462.67   468.99   475.68   476.44
                              483.41   486.69   509.16   514.77   520.75
                              524.49   535.58   538.34   546.28   555.63
                              566.88   594.78   619.91   633.11   638.84
                              653.99   657.47   662.34   707.66   744.33
                              802.09   821.15   898.54   911.38   916.62
                              921.88   961.99   964.03   994.32  1424.20
                             1590.13  1648.20  2104.18  2951.08  3694.52
                             3742.13  3756.24  3770.52  3794.77  3846.30

 Zero-point correction=                           0.098040 (Hartree/Particle)
 Thermal correction to Energy=                    0.133423
 Thermal correction to Enthalpy=                  0.134367
 Thermal correction to Gibbs Free Energy=         0.029707
 Sum of electronic and zero-point Energies=          -5700.274974
 Sum of electronic and thermal Energies=             -5700.239592
 Sum of electronic and thermal Enthalpies=           -5700.238647
 Sum of electronic and thermal Free Energies=        -5700.343307

                     E (Thermal)             CV                S
                      KCal/Mol        Cal/Mol-Kelvin    Cal/Mol-Kelvin
 Total                   83.724            118.967            220.274
 Electronic               0.000              0.000              0.000
 Translational            0.889              2.981             46.696
 Rotational               0.889              2.981             38.198
 Vibrational             81.946            113.006            135.381
 Vibration     1          0.594              1.982              5.356
 Vibration     2          0.595              1.980              5.072
 Vibration     3          0.595              1.979              4.993
 Vibration     4          0.596              1.976              4.688
 Vibration     5          0.596              1.974              4.510
 Vibration     6          0.597              1.973              4.432
 Vibration     7          0.599              1.965              3.991
 Vibration     8          0.600              1.963              3.916
 Vibration     9          0.601              1.960              3.792
 Vibration    10          0.601              1.958              3.722
 Vibration    11          0.602              1.956              3.637
 Vibration    12          0.603              1.952              3.545
 Vibration    13          0.605              1.945              3.345
 Vibration    14          0.607              1.938              3.208
 Vibration    15          0.608              1.935              3.141
 Vibration    16          0.610              1.928              3.029
 Vibration    17          0.610              1.928              3.017
 Vibration    18          0.613              1.920              2.895
 Vibration    19          0.615              1.913              2.804
 Vibration    20          0.616              1.911              2.771
 Vibration    21          0.619              1.900              2.643
 Vibration    22          0.622              1.889              2.524
 Vibration    23          0.623              1.887              2.503
 Vibration    24          0.627              1.876              2.402
 Vibration    25          0.629              1.868              2.335
 Vibration    26          0.635              1.848              2.187
 Vibration    27          0.640              1.832              2.086
 Vibration    28          0.648              1.808              1.948
 Vibration    29          0.653              1.793              1.869
 Vibration    30          0.656              1.785              1.828
 Vibration    31          0.663              1.761              1.725
 Vibration    32          0.669              1.742              1.647
 Vibration    33          0.679              1.715              1.548
 Vibration    34          0.687              1.690              1.468
 Vibration    35          0.697              1.660              1.376
 Vibration    36          0.702              1.647              1.342
 Vibration    37          0.707              1.632              1.302
 Vibration    38          0.710              1.624              1.280
 Vibration    39          0.713              1.614              1.257
 Vibration    40          0.714              1.613              1.255
 Vibration    41          0.717              1.604              1.231
 Vibration    42          0.719              1.599              1.220
 Vibration    43          0.730              1.567              1.149
 Vibration    44          0.733              1.559              1.132
 Vibration    45          0.736              1.551              1.114
 Vibration    46          0.738              1.545              1.103
 Vibration    47          0.744              1.529              1.071
 Vibration    48          0.745              1.525              1.063
 Vibration    49          0.750              1.513              1.040
 Vibration    50          0.755              1.500              1.015
 Vibration    51          0.761              1.483              0.985
 Vibration    52          0.777              1.441              0.915
 Vibration    53          0.792              1.403              0.856
 Vibration    54          0.800              1.383              0.826
 Vibration    55          0.804              1.374              0.814
 Vibration    56          0.813              1.351              0.782
 Vibration    57          0.815              1.345              0.775
 Vibration    58          0.818              1.338              0.765
 Vibration    59          0.848              1.268              0.679
 Vibration    60          0.872              1.212              0.616
 Vibration    61          0.913              1.123              0.529
 Vibration    62          0.927              1.095              0.503

                           ! Non-Optimized Parameters !
 Normal termination of Gaussian 16 at Fri May  6 00:31:28 2022.
