 Gaussian 16, Revision C.01,
 Gaussian 16:  ES64L-G16RevC.01  3-Jul-2019

 -----------------------------------------------------------
 # opt=(calcfc,ts,noeigen) freq b3lyp/gen nosymm pseudo=read
 -----------------------------------------------------------

 -------------------
 Title Card Required
 -------------------
 Symbolic Z-matrix:
 Charge =  0 Multiplicity = 1

 SCF Done:  E(RB3LYP) =  -1206.30864905     A.U. after   19 cycles
 SCF Done:  E(RB3LYP) =  -1206.31830687     A.U. after   14 cycles
 SCF Done:  E(RB3LYP) =  -1206.31858047     A.U. after   15 cycles
 SCF Done:  E(RB3LYP) =  -1206.31872617     A.U. after   13 cycles
 SCF Done:  E(RB3LYP) =  -1206.31873597     A.U. after   12 cycles
 SCF Done:  E(RB3LYP) =  -1206.31873590     A.U. after   11 cycles
 SCF Done:  E(RB3LYP) =  -1206.31873589     A.U. after   10 cycles
 Optimization completed.
    -- Stationary point found.

 1\1\GINC-NODE10-IB\FTS\RB3LYP\Gen\C3H4Mo1O3S2\CHESAGAR\10-Mar-2022\0\\
 # opt=(calcfc,ts,noeigen) freq b3lyp/gen nosymm pseudo=read\\Title Car
 d Required\\0,1\Mo,1.6122804629,-0.0176791963,-0.8328367073\C,3.234605
 681,-0.915571207,-1.7155401785\C,1.2217167055,-1.6499939205,0.11543068
 04\C,0.4974201964,-0.6843960545,-2.4207142486\O,-0.1219580423,-1.08265
 37568,-3.3081735503\O,4.1392368108,-1.4169236824,-2.2247197432\O,0.986
 9129028,-2.609230839,0.7325431619\S,-0.2637978212,1.2260371054,0.11328
 13604\H,0.7147963922,1.8762100532,1.4163096168\H,-0.195797162,2.421493

 Normal termination of Gaussian 16 at Thu Mar 10 18:26:29 2022.

 ------------------------------------------------------------------
 #N Geom=AllCheck Guess=TCheck SCRF=Check GenChk RB3LYP/ChkBas Freq
 ------------------------------------------------------------------

 Structure from the checkpoint file:  "/home/chesagar/scratch/Gau-45572.chk"
 -------------------
 Title Card Required
 -------------------
 Charge =  0 Multiplicity = 1

                          Input orientation:
 ---------------------------------------------------------------------
 Center     Atomic      Atomic             Coordinates (Angstroms)
 Number     Number       Type             X           Y           Z
 ---------------------------------------------------------------------
      1         42           0        1.612280   -0.017679   -0.832837
      2          6           0        3.234606   -0.915571   -1.715540
      3          6           0        1.221717   -1.649994    0.115431
      4          6           0        0.497420   -0.684396   -2.420714
      5          8           0       -0.121958   -1.082654   -3.308174
      6          8           0        4.139237   -1.416924   -2.224720
      7          8           0        0.986913   -2.609231    0.732543
      8         16           0       -0.263798    1.226037    0.113281
      9          1           0        0.714796    1.876210    1.416310
     10          1           0       -0.195797    2.421493   -0.525610
     11         16           0        3.001456    0.986402    0.928113
     12          1           0        1.629327    1.828275    1.625996
     13          1           0        3.015970    0.075574    1.925894
 ---------------------------------------------------------------------

 SCF Done:  E(RB3LYP) =  -1206.31873589     A.U. after    1 cycles

 Alpha  occ. eigenvalues --  -88.90187 -88.89940 -19.23696 -19.23537 -19.20415
 Alpha  occ. eigenvalues --  -10.30939 -10.30829 -10.28673  -7.97760  -7.97570
 Alpha  occ. eigenvalues --   -5.93985  -5.93859  -5.93781  -5.93676  -5.93315
 Alpha  occ. eigenvalues --   -5.93130  -2.47432  -1.50491  -1.50069  -1.49637
 Alpha  occ. eigenvalues --   -1.13903  -1.13741  -1.10522  -0.76286  -0.74534
 Alpha  occ. eigenvalues --   -0.57408  -0.56487  -0.54647  -0.49881  -0.46906
 Alpha  occ. eigenvalues --   -0.46197  -0.46116  -0.45782  -0.45570  -0.45018
 Alpha  occ. eigenvalues --   -0.43838  -0.43181  -0.42726  -0.42338  -0.41077
 Alpha  occ. eigenvalues --   -0.33582  -0.32282  -0.29518  -0.24867  -0.23130
 Alpha  occ. eigenvalues --   -0.22772
 Alpha virt. eigenvalues --   -0.13112  -0.08851  -0.03024  -0.02339  -0.00929
 Alpha virt. eigenvalues --    0.00041   0.00096   0.01006   0.01716   0.02474
 Alpha virt. eigenvalues --    0.03257   0.04114   0.04837   0.05578   0.10066

 Mulliken charges:
               1
     1  Mo  -0.074279
     2  C    0.209036
     3  C    0.257071
     4  C    0.208891
     5  O   -0.238029
     6  O   -0.236243
     7  O   -0.283907
     8  S   -0.030059
     9  H    0.011710
    10  H    0.095751
    11  S   -0.051966
    12  H    0.009974
    13  H    0.122050
 Sum of Mulliken charges =  -0.00000

 Dipole moment (field-independent basis, Debye):
    X=              0.3232    Y=              3.1255    Z=              0.4536  Tot=              3.1747
 Quadrupole moment (field-independent basis, Debye-Ang):
   XX=            -87.7914   YY=            -84.1357   ZZ=            -83.6319
   XY=              1.7268   XZ=              2.4324   YZ=             -3.4856

  Exact polarizability:     140.236     -12.312     124.327       5.068      30.893     144.868
 Approx polarizability:     302.670     -27.552     265.063      -2.099      85.341     352.435

 ******    1 imaginary frequencies (negative Signs) ******

                      1                      2                      3
                      A                      A                      A
 Frequencies --   -959.9823                46.7614                81.3900
 Red. masses --      1.1702                10.9823                15.1959
 Frc consts  --      0.6354                 0.0141                 0.0593
 IR Inten    --   1968.4206                 0.0379                 0.0481

                      4                      5                      6
                      A                      A                      A
 Frequencies --     83.6070                93.8490                97.8079
 Red. masses --     12.4073                13.8784                15.2702
 Frc consts  --      0.0511                 0.0720                 0.0861
 IR Inten    --      0.1030                 0.5361                 0.2296

                      7                      8                      9
                      A                      A                      A
 Frequencies --     98.5955               267.6729               279.2954
 Red. masses --      9.7991                 3.3228                 1.9884
 Frc consts  --      0.0561                 0.1403                 0.0914
 IR Inten    --      0.1794                 8.6404                 7.8915

                     10                     11                     12
                      A                      A                      A
 Frequencies --    300.0941               314.8337               384.9051
 Red. masses --      5.4837                 6.3873                 4.6513
 Frc consts  --      0.2910                 0.3730                 0.4060
 IR Inten    --     22.8773                10.1659                 2.3571

                     13                     14                     15
                      A                      A                      A
 Frequencies --    395.9715               424.8224               433.6650
 Red. masses --      5.4845                 5.6444                 5.2674
 Frc consts  --      0.5067                 0.6002                 0.5836
 IR Inten    --      1.9770                 1.1576                 6.7294

                     16                     17                     18
                      A                      A                      A
 Frequencies --    443.8662               469.9129               498.1536
 Red. masses --      8.8705                 1.9224                10.6043
 Frc consts  --      1.0297                 0.2501                 1.5505
 IR Inten    --     15.0825                 9.1304                 6.0675

                     19                     20                     21
                      A                      A                      A
 Frequencies --    516.7949               553.5539               580.7935
 Red. masses --      4.9566                 1.5126                 6.2116
 Frc consts  --      0.7800                 0.2731                 1.2345
 IR Inten    --      5.5000                 7.9251                 1.1867

                     22                     23                     24
                      A                      A                      A
 Frequencies --    598.3026               644.1068               771.2500
 Red. masses --      1.3559                 3.5378                 1.0448
 Frc consts  --      0.2860                 0.8648                 0.3662
 IR Inten    --      2.3693                42.9014                 4.7651

                     25                     26                     27
                      A                      A                      A
 Frequencies --    983.6279              1021.8708              1177.3631
 Red. masses --      1.0538                 1.0117                 1.0137
 Frc consts  --      0.6007                 0.6225                 0.8279
 IR Inten    --     52.5807                40.4483                 3.7520

                     28                     29                     30
                      A                      A                      A
 Frequencies --   1657.0308              2003.5859              2065.7766
 Red. masses --      1.0296                13.3433                13.3806
 Frc consts  --      1.6657                31.5593                33.6427
 IR Inten    --    319.3134               980.8485               750.7625

                     31                     32                     33
                      A                      A                      A
 Frequencies --   2110.4221              2610.6411              2659.9722
 Red. masses --     11.9773                 1.0383                 1.0390
 Frc consts  --     31.4302                 4.1691                 4.3312
 IR Inten    --    895.2441                 6.3461                 0.3122

 - Thermochemistry -
 -------------------
 Temperature   298.150 Kelvin.  Pressure   1.00000 Atm.
 Atom     1 has atomic number 42 and mass  97.90550

 Molecular mass:   249.86569 amu.
 Principal axes and moments of inertia in atomic units:
                           1         2         3
     Eigenvalues --  2078.315762291.534323025.70429
           X           -0.12122   0.96739   0.22241
           Y            0.61867  -0.10159   0.77905
           Z            0.77624   0.23203  -0.58618
 This molecule is an asymmetric top.
 Rotational symmetry number  1.
 Warning -- assumption of classical behavior for rotation
           may cause significant error
 Rotational temperatures (Kelvin)      0.04168     0.03780     0.02863
 Rotational constants (GHZ):           0.86837     0.78757     0.59647
    1 imaginary frequencies ignored.
 Zero-point vibrational energy     147561.1 (Joules/Mol)
                                   35.26796 (Kcal/Mol)
 Warning -- explicit consideration of  21 degrees of freedom as
           vibrations may cause significant error
 Vibrational temperatures:     67.28   117.10   120.29   135.03   140.72
          (Kelvin)            141.86   385.12   401.84   431.77   452.98
                              553.79   569.71   611.22   623.95   638.62
                              676.10   716.73   743.55   796.44   835.63
                              860.82   926.73  1109.66  1415.22  1470.24
                             1693.96  2384.10  2882.71  2972.19  3036.43
                             3756.13  3827.11

 Zero-point correction=                           0.056203 (Hartree/Particle)
 Thermal correction to Energy=                    0.068362
 Thermal correction to Enthalpy=                  0.069307
 Thermal correction to Gibbs Free Energy=         0.016357
 Sum of electronic and zero-point Energies=          -1206.262533
 Sum of electronic and thermal Energies=             -1206.250373
 Sum of electronic and thermal Enthalpies=           -1206.249429
 Sum of electronic and thermal Free Energies=        -1206.302379

                     E (Thermal)             CV                S
                      KCal/Mol        Cal/Mol-Kelvin    Cal/Mol-Kelvin
 Total                   42.898             41.355            111.441
 Electronic               0.000              0.000              0.000
 Translational            0.889              2.981             42.448
 Rotational               0.889              2.981             31.044
 Vibrational             41.121             35.394             37.949
 Vibration     1          0.595              1.979              4.950
 Vibration     2          0.600              1.962              3.857
 Vibration     3          0.601              1.960              3.804
 Vibration     4          0.603              1.954              3.578
 Vibration     5          0.603              1.951              3.498
 Vibration     6          0.604              1.950              3.482
 Vibration     7          0.673              1.733              1.611
 Vibration     8          0.680              1.712              1.538
 Vibration     9          0.693              1.674              1.416
 Vibration    10          0.702              1.645              1.337
 Vibration    11          0.754              1.502              1.020
 Vibration    12          0.763              1.479              0.978
 Vibration    13          0.787              1.416              0.876
 Vibration    14          0.794              1.397              0.847
 Vibration    15          0.803              1.374              0.815
 Vibration    16          0.827              1.317              0.738
 Vibration    17          0.854              1.254              0.663
 Vibration    18          0.872              1.213              0.617
 Vibration    19          0.909              1.132              0.537
 Vibration    20          0.937              1.073              0.484
 Vibration    21          0.956              1.035              0.453

 Optimization completed.
    -- Stationary point found.
 Normal termination of Gaussian 16 at Thu Mar 10 18:26:45 2022.
