 Gaussian 16, Revision C.01,
 Gaussian 16:  ES64L-G16RevC.01  3-Jul-2019

 ---------------------------------------
 # opt freq b3lyp/gen nosymm pseudo=read
 ---------------------------------------

 -------------------
 Title Card Required
 -------------------
 Symbolic Z-matrix:
 Charge =  0 Multiplicity = 1

 SCF Done:  E(RB3LYP) =  -9844.33376672     A.U. after   42 cycles
 SCF Done:  E(RB3LYP) =  -9844.36317072     A.U. after   23 cycles
 SCF Done:  E(RB3LYP) =  -9844.38188591     A.U. after   24 cycles
 SCF Done:  E(RB3LYP) =  -9844.38693213     A.U. after   24 cycles
 SCF Done:  E(RB3LYP) =  -9844.39281090     A.U. after   23 cycles
 SCF Done:  E(RB3LYP) =  -9844.39701272     A.U. after   22 cycles
 SCF Done:  E(RB3LYP) =  -9844.40093671     A.U. after   22 cycles
 SCF Done:  E(RB3LYP) =  -9844.40231773     A.U. after   22 cycles
 SCF Done:  E(RB3LYP) =  -9844.40305189     A.U. after   21 cycles
 SCF Done:  E(RB3LYP) =  -9844.40335658     A.U. after   20 cycles
 SCF Done:  E(RB3LYP) =  -9844.40456006     A.U. after   19 cycles
 SCF Done:  E(RB3LYP) =  -9844.40456767     A.U. after   17 cycles
 SCF Done:  E(RB3LYP) =  -9844.40457104     A.U. after   17 cycles
 SCF Done:  E(RB3LYP) =  -9844.40457315     A.U. after   17 cycles
 SCF Done:  E(RB3LYP) =  -9844.40457609     A.U. after   17 cycles
 SCF Done:  E(RB3LYP) =  -9844.40457787     A.U. after   17 cycles
 SCF Done:  E(RB3LYP) =  -9844.40457895     A.U. after   16 cycles
 SCF Done:  E(RB3LYP) =  -9844.40458049     A.U. after   17 cycles
 SCF Done:  E(RB3LYP) =  -9844.40458114     A.U. after   16 cycles
 Optimization completed.
    -- Stationary point found.
 Normal termination of Gaussian 16 at Fri Dec 16 21:51:11 2022.

 ------------------------------------------------------------------
 #N Geom=AllCheck Guess=TCheck SCRF=Check GenChk RB3LYP/ChkBas Freq
 ------------------------------------------------------------------

 Structure from the checkpoint file:  "/localscratch/chegho/Gau-52247.chk"
 -------------------
 Title Card Required
 -------------------
 Charge =  0 Multiplicity = 1

                          Input orientation:
 ---------------------------------------------------------------------
 Center     Atomic      Atomic             Coordinates (Angstroms)
 Number     Number       Type             X           Y           Z
 ---------------------------------------------------------------------
      1         42           0        0.327166    1.834660   12.210514
      2         16           0        1.365564    3.944456   12.085921
      3         16           0       -1.679207    2.443021   13.194166
      4         16           0       -0.521903    1.094520   10.108709
      5         16           0        2.168249    0.180027   11.652823
      6         42           0       -2.142869    2.716013   10.836862
      7         16           0       -3.078371    2.116711    8.565321
      8         16           0       -1.254083    4.816831   10.576118
      9         42           0        0.615241    3.261837    9.852077
     10         16           0       -0.225775    3.014446    7.446186
     11         16           0        2.507260    1.949589    8.966295
     12         42           0        3.004616    2.543695   11.208162
     13         42           0       -1.861505    4.342766    8.392841
     14         16           0        4.347542    2.456441   13.334941
     15         16           0        4.586741    4.265761   10.675921
     16         16           0       -4.188024    5.453411    8.606000
     17         16           0       -1.341235    6.456298    7.505652
     18         42           0       -4.696381    3.457490    9.456722
     19         16           0       -6.648591    2.790050    8.973165
     20         16           0       -4.339355    3.425184   11.684418
     21         42           0        2.880227    0.813686   13.745683
     22         16           0        3.764382   -0.763464   14.850834
     23         16           0        1.063528    1.624702   14.708473
     24         42           0        0.467867    5.241810    6.574056
     25         16           0       -0.371608    4.589159    4.592520
     26         16           0        1.459903    5.562263    9.241068
     27         42           0        3.191861    4.239393    8.845523
     28         16           0        2.686068    3.870476    6.366484
     29         16           0        4.695032    6.178785    8.052613
     30         42           0        3.478112    6.001078    6.206672
     31         16           0        4.651102    6.256352    4.467750
     32         16           0        1.629321    7.432973    6.273026
     33         42           0        0.611238    6.721120    4.105432
     34          6           0       -0.227859    6.377559    2.273496
     35          6           0       -0.662995    8.209409    4.253205
     36          6           0        1.934586    7.836556    3.042476
     37          8           0       -0.703510    6.229411    1.236772
     38          8           0       -1.449140    9.048735    4.379046
     39          8           0        2.698776    8.436995    2.423752
 ---------------------------------------------------------------------

 SCF Done:  E(RB3LYP) =  -9844.40458114     A.U. after    3 cycles

 Alpha  occ. eigenvalues --  -88.94738 -88.93511 -88.93110 -88.92846 -88.92735
 Alpha  occ. eigenvalues --  -88.92500 -88.92390 -88.92083 -88.91945 -88.91807
 Alpha  occ. eigenvalues --  -88.91148 -88.90494 -88.90447 -88.90372 -88.90001
 Alpha  occ. eigenvalues --  -88.89914 -88.89870 -88.89313 -88.89307 -88.89249
 Alpha  occ. eigenvalues --  -88.88699 -88.88443 -19.26002 -19.25847 -19.24061
 Alpha  occ. eigenvalues --  -10.33582 -10.33140 -10.31955  -8.02073  -8.01004
 Alpha  occ. eigenvalues --   -8.00592  -8.00184  -8.00144  -7.99996  -7.99771
 Alpha  occ. eigenvalues --   -7.99512  -7.99458  -7.99224  -7.98887  -7.98365
 Alpha  occ. eigenvalues --   -7.98045  -7.97954  -7.97647  -7.97569  -7.97499
 Alpha  occ. eigenvalues --   -7.97056  -7.97049  -7.96796  -7.96586  -7.96341
 Alpha  occ. eigenvalues --   -5.98143  -5.98044  -5.97954  -5.97035  -5.97005
 Alpha  occ. eigenvalues --   -5.96871  -5.96644  -5.96576  -5.96451  -5.96214
 Alpha  occ. eigenvalues --   -5.96186  -5.96178  -5.96123  -5.96114  -5.96013
 Alpha  occ. eigenvalues --   -5.96011  -5.95996  -5.95874  -5.95854  -5.95795
 Alpha  occ. eigenvalues --   -5.95604  -5.95586  -5.95507  -5.95476  -5.95449
 Alpha  occ. eigenvalues --   -5.95341  -5.95341  -5.95267  -5.95215  -5.95105
 Alpha  occ. eigenvalues --   -5.94952  -5.94848  -5.94704  -5.94343  -5.94295
 Alpha  occ. eigenvalues --   -5.94268  -5.94089  -5.94066  -5.94012  -5.93913
 Alpha  occ. eigenvalues --   -5.93849  -5.93822  -5.93750  -5.93658  -5.93656
 Alpha  occ. eigenvalues --   -5.93604  -5.93519  -5.93434  -5.93418  -5.93381
 Alpha  occ. eigenvalues --   -5.93318  -5.93167  -5.93159  -5.93010  -5.92999
 Alpha  occ. eigenvalues --   -5.92938  -5.92834  -5.92834  -5.92716  -5.92619
 Alpha  occ. eigenvalues --   -5.92575  -5.92519  -5.92476  -5.92324  -5.92280
 Alpha  occ. eigenvalues --   -5.92229  -2.58953  -2.57888  -2.57862  -2.57656
 Alpha  occ. eigenvalues --   -2.56898  -2.56365  -2.55968  -2.55605  -2.55432
 Alpha  occ. eigenvalues --   -2.54851  -2.50742  -1.61851  -1.61227  -1.60898
 Alpha  occ. eigenvalues --   -1.60786  -1.60663  -1.60398  -1.60306  -1.60127
 Alpha  occ. eigenvalues --   -1.60001  -1.59853  -1.59838  -1.59605  -1.59530
 Alpha  occ. eigenvalues --   -1.59521  -1.59025  -1.58976  -1.58905  -1.58779
 Alpha  occ. eigenvalues --   -1.58482  -1.58245  -1.58028  -1.57704  -1.57636
 Alpha  occ. eigenvalues --   -1.57609  -1.57307  -1.57253  -1.57038  -1.56907
 Alpha  occ. eigenvalues --   -1.56735  -1.56347  -1.53820  -1.53424  -1.52732
 Alpha  occ. eigenvalues --   -1.16277  -1.15994  -1.14179  -0.78747  -0.77017
 Alpha  occ. eigenvalues --   -0.76185  -0.76020  -0.75399  -0.74913  -0.74680
 Alpha  occ. eigenvalues --   -0.74551  -0.74219  -0.73908  -0.73308  -0.72732
 Alpha  occ. eigenvalues --   -0.72520  -0.72427  -0.72209  -0.71988  -0.71673
 Alpha  occ. eigenvalues --   -0.71337  -0.71203  -0.70557  -0.69880  -0.69624
 Alpha  occ. eigenvalues --   -0.59769  -0.58592  -0.57567  -0.49620  -0.48708
 Alpha  occ. eigenvalues --   -0.48397  -0.48071  -0.47964  -0.46715  -0.46561
 Alpha  occ. eigenvalues --   -0.46035  -0.45969  -0.45699  -0.45681  -0.45489
 Alpha  occ. eigenvalues --   -0.44586  -0.43493  -0.43484  -0.43113  -0.42769
 Alpha  occ. eigenvalues --   -0.42651  -0.42363  -0.42027  -0.41607  -0.41385
 Alpha  occ. eigenvalues --   -0.40879  -0.40594  -0.40391  -0.40306  -0.40169
 Alpha  occ. eigenvalues --   -0.39918  -0.39811  -0.39380  -0.39347  -0.39226
 Alpha  occ. eigenvalues --   -0.39008  -0.38755  -0.38565  -0.38400  -0.38137
 Alpha  occ. eigenvalues --   -0.37879  -0.37621  -0.37433  -0.36922  -0.36851
 Alpha  occ. eigenvalues --   -0.36729  -0.36563  -0.36491  -0.36290  -0.36079
 Alpha  occ. eigenvalues --   -0.35977  -0.35794  -0.35675  -0.35540  -0.35258
 Alpha  occ. eigenvalues --   -0.35116  -0.34697  -0.34458  -0.34067  -0.33907
 Alpha  occ. eigenvalues --   -0.33571  -0.33405  -0.33111  -0.32798  -0.32730
 Alpha  occ. eigenvalues --   -0.32252  -0.31855  -0.31693  -0.31585  -0.31228
 Alpha  occ. eigenvalues --   -0.31043  -0.30362  -0.30339  -0.29866  -0.29647
 Alpha  occ. eigenvalues --   -0.29377  -0.29314  -0.28956  -0.28362  -0.27381
 Alpha  occ. eigenvalues --   -0.27257  -0.26762  -0.26547  -0.26434  -0.25399
 Alpha  occ. eigenvalues --   -0.25139  -0.24641  -0.24210  -0.23866
 Alpha virt. eigenvalues --   -0.18579  -0.17997  -0.17430  -0.16717  -0.16517
 Alpha virt. eigenvalues --   -0.16205  -0.15899  -0.15276  -0.14911  -0.14742
 Alpha virt. eigenvalues --   -0.14621  -0.14405  -0.14127  -0.13751  -0.13492

 Mulliken charges:
               1
     1  Mo  -0.205628
     2  S    0.401414
     3  S    0.053235
     4  S    0.207947
     5  S    0.080753
     6  Mo  -0.206815
     7  S    0.121043
     8  S    0.330482
     9  Mo  -0.873090
    10  S    0.179277
    11  S    0.203840
    12  Mo  -0.247240
    13  Mo  -0.144556
    14  S   -0.017959
    15  S    0.075571
    16  S   -0.016407
    17  S    0.154765
    18  Mo   0.273487
    19  S   -0.191995
    20  S    0.019035
    21  Mo   0.288369
    22  S   -0.190002
    23  S   -0.025261
    24  Mo  -0.829624
    25  S    0.094975
    26  S    0.225693
    27  Mo  -0.138981
    28  S    0.102800
    29  S    0.011407
    30  Mo   0.244269
    31  S   -0.152520
    32  S    0.121338
    33  Mo   0.050230
    34  C    0.223073
    35  C    0.244956
    36  C    0.225847
    37  O   -0.221831
    38  O   -0.246701
    39  O   -0.225195
 Sum of Mulliken charges =  -0.00000

 Dipole moment (field-independent basis, Debye):
    X=              1.7925    Y=             -0.7335    Z=             -2.5012  Tot=              3.1634
 Quadrupole moment (field-independent basis, Debye-Ang):
   XX=           -582.6717   YY=           -585.0662   ZZ=           -634.1474
   XY=             10.7057   XZ=              6.6150   YZ=             -8.2158

  Exact polarizability:    1203.254       9.582     805.285      36.674    -443.383    1250.634
 Approx polarizability:    3968.652     101.460    2562.733     -31.162    -988.729    3543.106

                      1                      2                      3
                      A                      A                      A
 Frequencies --     17.4734                22.8097                36.0012
 Red. masses --     17.8136                24.6766                23.5685
 Frc consts  --      0.0032                 0.0076                 0.0180
 IR Inten    --      0.2944                 0.0456                 0.2521

                      4                      5                      6
                      A                      A                      A
 Frequencies --     41.5000                44.1955                46.0524
 Red. masses --     38.3277                32.4374                40.4119
 Frc consts  --      0.0389                 0.0373                 0.0505
 IR Inten    --      0.3364                 0.7253                 0.1353

                      7                      8                      9
                      A                      A                      A
 Frequencies --     52.7585                57.0633                61.2203
 Red. masses --     32.3279                37.9456                34.8121
 Frc consts  --      0.0530                 0.0728                 0.0769
 IR Inten    --      0.7698                 0.8772                 0.0414

                     10                     11                     12
                      A                      A                      A
 Frequencies --     63.1846                68.1928                74.6012
 Red. masses --     29.3006                29.7669                40.4697
 Frc consts  --      0.0689                 0.0816                 0.1327
 IR Inten    --      0.0924                 0.7953                 2.0290

                     13                     14                     15
                      A                      A                      A
 Frequencies --     78.7772                79.6809                82.0266
 Red. masses --     27.6923                25.1180                21.5615
 Frc consts  --      0.1013                 0.0940                 0.0855
 IR Inten    --      0.5691                 0.8251                 0.6422

                     16                     17                     18
                      A                      A                      A
 Frequencies --     84.0659                86.5810                88.7764
 Red. masses --     37.8575                28.0727                31.2694
 Frc consts  --      0.1576                 0.1240                 0.1452
 IR Inten    --      0.9718                 0.6447                 1.7731

                     19                     20                     21
                      A                      A                      A
 Frequencies --     90.9822                95.1822                99.4609
 Red. masses --     25.8536                29.8087                36.6817
 Frc consts  --      0.1261                 0.1591                 0.2138
 IR Inten    --      0.1580                 0.8069                 1.7107

                     22                     23                     24
                      A                      A                      A
 Frequencies --    102.0664               106.2967               108.2917
 Red. masses --     23.9215                37.5606                39.4914
 Frc consts  --      0.1468                 0.2500                 0.2729
 IR Inten    --      0.4668                 0.3600                 0.3943

                     25                     26                     27
                      A                      A                      A
 Frequencies --    113.8145               114.1289               119.6942
 Red. masses --     46.8575                47.5629                46.7357
 Frc consts  --      0.3576                 0.3650                 0.3945
 IR Inten    --      2.9871                 0.6233                 3.3467

                     28                     29                     30
                      A                      A                      A
 Frequencies --    121.4640               125.5613               131.1652
 Red. masses --     39.8187                49.7010                45.8850
 Frc consts  --      0.3461                 0.4617                 0.4651
 IR Inten    --      0.2423                 0.6341                 0.8207

                     31                     32                     33
                      A                      A                      A
 Frequencies --    137.1319               139.8576               143.9390
 Red. masses --     44.4086                40.4396                48.5343
 Frc consts  --      0.4920                 0.4660                 0.5925
 IR Inten    --      0.8816                 1.2510                 1.2309

                     34                     35                     36
                      A                      A                      A
 Frequencies --    145.0578               147.3562               153.9465
 Red. masses --     42.0009                43.4731                42.3222
 Frc consts  --      0.5207                 0.5562                 0.5910
 IR Inten    --      0.0927                 1.3029                 2.7412

                     37                     38                     39
                      A                      A                      A
 Frequencies --    156.4290               157.7583               159.9741
 Red. masses --     47.9526                40.2568                45.0555
 Frc consts  --      0.6913                 0.5903                 0.6794
 IR Inten    --      0.8111                 2.6104                 0.7228

                     40                     41                     42
                      A                      A                      A
 Frequencies --    164.4081               165.6839               170.7418
 Red. masses --     49.3272                51.6913                50.0735
 Frc consts  --      0.7856                 0.8360                 0.8601
 IR Inten    --      1.0472                 1.4892                 8.0872

                     43                     44                     45
                      A                      A                      A
 Frequencies --    173.7916               175.7991               183.8129
 Red. masses --     44.9550                46.3004                47.9579
 Frc consts  --      0.8000                 0.8431                 0.9547
 IR Inten    --      2.2554                 4.0444                 0.9196

                     46                     47                     48
                      A                      A                      A
 Frequencies --    186.2145               196.0323               198.8616
 Red. masses --     49.3860                43.5102                38.9153
 Frc consts  --      1.0090                 0.9851                 0.9067
 IR Inten    --      0.5445                 5.7977                 2.5987

                     49                     50                     51
                      A                      A                      A
 Frequencies --    207.8312               209.0276               218.0955
 Red. masses --     37.3594                45.4228                45.6743
 Frc consts  --      0.9508                 1.1693                 1.2800
 IR Inten    --      1.2504                 4.9633                 0.3164

                     52                     53                     54
                      A                      A                      A
 Frequencies --    222.7900               232.3842               234.5632
 Red. masses --     39.2334                34.0184                36.5224
 Frc consts  --      1.1474                 1.0824                 1.1839
 IR Inten    --      0.4197                 1.9347                11.6008

                     55                     56                     57
                      A                      A                      A
 Frequencies --    237.6836               241.8581               245.8316
 Red. masses --     37.9954                35.1132                38.4315
 Frc consts  --      1.2647                 1.2102                 1.3684
 IR Inten    --      0.4282                 5.0306                 0.1215

                     58                     59                     60
                      A                      A                      A
 Frequencies --    248.6213               259.5082               268.2921
 Red. masses --     35.8771                34.1778                35.1401
 Frc consts  --      1.3066                 1.3561                 1.4903
 IR Inten    --     12.6906                 2.6241                 4.2489

                     61                     62                     63
                      A                      A                      A
 Frequencies --    271.4709               276.5209               284.6879
 Red. masses --     36.1073                34.8228                36.1308
 Frc consts  --      1.5678                 1.5688                 1.7253
 IR Inten    --      1.0589                 5.0307                 1.9252

                     64                     65                     66
                      A                      A                      A
 Frequencies --    288.0366               294.9206               296.3519
 Red. masses --     35.5734                34.8351                38.9320
 Frc consts  --      1.7389                 1.7852                 2.0145
 IR Inten    --      3.1286                 9.7204                 3.2845

                     67                     68                     69
                      A                      A                      A
 Frequencies --    300.7616               308.3814               310.2984
 Red. masses --     35.7772                36.7870                37.7714
 Frc consts  --      1.9068                 2.0612                 2.1428
 IR Inten    --      2.3717                 3.7474                 1.2164

                     70                     71                     72
                      A                      A                      A
 Frequencies --    312.4550               321.0975               326.4251
 Red. masses --     34.3126                35.3559                31.7630
 Frc consts  --      1.9737                 2.1478                 1.9941
 IR Inten    --      1.5836                15.3176                 8.1962

                     73                     74                     75
                      A                      A                      A
 Frequencies --    333.0417               334.7506               345.8027
 Red. masses --     35.2346                38.4922                37.1046
 Frc consts  --      2.3026                 2.5414                 2.6142
 IR Inten    --      4.5010                 4.4557                 1.1281

                     76                     77                     78
                      A                      A                      A
 Frequencies --    368.0623               377.6763               380.7153
 Red. masses --     40.4252                34.6573                28.6455
 Frc consts  --      3.2266                 2.9126                 2.4463
 IR Inten    --      1.5127                 1.0843                 2.0976

                     79                     80                     81
                      A                      A                      A
 Frequencies --    388.5814               394.7854               398.6513
 Red. masses --     15.0110                30.2421                15.2493
 Frc consts  --      1.3354                 2.7771                 1.4279
 IR Inten    --      4.5889                 1.6355                 1.2903

                     82                     83                     84
                      A                      A                      A
 Frequencies --    405.8054               406.3499               408.3226
 Red. masses --     35.3925                29.0568                30.1509
 Frc consts  --      3.4340                 2.8268                 2.9618
 IR Inten    --      2.1322                 2.7554                 1.2621

                     85                     86                     87
                      A                      A                      A
 Frequencies --    410.5945               414.1009               417.0032
 Red. masses --     27.4461                33.8468                34.5700
 Frc consts  --      2.7262                 3.4196                 3.5418
 IR Inten    --     11.9481                 1.9678                11.2916

                     88                     89                     90
                      A                      A                      A
 Frequencies --    425.2749               431.4182               433.9356
 Red. masses --     16.3662                34.2449                32.7211
 Frc consts  --      1.7440                 3.7553                 3.6302
 IR Inten    --     32.6308                 1.7478                 4.7308

                     91                     92                     93
                      A                      A                      A
 Frequencies --    437.4766               438.2418               444.0182
 Red. masses --     36.6837                18.4209                33.5777
 Frc consts  --      4.1365                 2.0844                 3.9003
 IR Inten    --      1.2456                39.8005                 1.6238

                     94                     95                     96
                      A                      A                      A
 Frequencies --    451.5002               459.5965               460.0704
 Red. masses --     39.2140                38.5643                39.2738
 Frc consts  --      4.7099                 4.7994                 4.8978
 IR Inten    --      2.6959                 1.6497                20.0571

                     97                     98                     99
                      A                      A                      A
 Frequencies --    466.7463               468.0847               470.0755
 Red. masses --     33.4486                38.7957                18.5256
 Frc consts  --      4.2933                 5.0082                 2.4119
 IR Inten    --     14.0068                 8.9835                19.9357

                    100                    101                    102
                      A                      A                      A
 Frequencies --    471.1819               475.2878               477.5997
 Red. masses --     25.8176                32.5645                22.5598
 Frc consts  --      3.3771                 4.3342                 3.0319
 IR Inten    --     20.1946                16.1793                 4.2457

                    103                    104                    105
                      A                      A                      A
 Frequencies --    512.2747               550.2139               563.5237
 Red. masses --     13.6584                13.6278                39.8665
 Frc consts  --      2.1118                 2.4307                 7.4590
 IR Inten    --     33.3219                16.4112               266.4700

                    106                    107                    108
                      A                      A                      A
 Frequencies --    564.0073               565.5406               604.3889
 Red. masses --     37.9984                38.8821                14.0888
 Frc consts  --      7.1217                 7.3270                 3.0322
 IR Inten    --    209.0511                26.6948                64.8727

                    109                    110                    111
                      A                      A                      A
 Frequencies --   2036.5817              2073.8639              2108.1710
 Red. masses --     13.3838                13.3853                13.3681
 Frc consts  --     32.7064                33.9187                35.0051
 IR Inten    --    607.9974               522.2002              3364.4137

 - Thermochemistry -
 -------------------
 Temperature   298.150 Kelvin.  Pressure   1.00000 Atm.
 Atom     1 has atomic number 42 and mass  97.90550

 Molecular mass:  1864.33082 amu.
 Principal axes and moments of inertia in atomic units:
                           1         2         3
     Eigenvalues --  ******************************
           X            0.02838   0.99910  -0.03144
           Y           -0.52694   0.04168   0.84888
           Z            0.84943  -0.00752   0.52765
 This molecule is an asymmetric top.
 Rotational symmetry number  1.
 Warning -- assumption of classical behavior for rotation
           may cause significant error
 Rotational temperatures (Kelvin)      0.00159     0.00098     0.00066
 Rotational constants (GHZ):           0.03314     0.02033     0.01365
 Zero-point vibrational energy     203132.4 (Joules/Mol)
                                   48.54980 (Kcal/Mol)
 Warning -- explicit consideration of 108 degrees of freedom as
           vibrations may cause significant error
 Vibrational temperatures:     25.14    32.82    51.80    59.71    63.59
          (Kelvin)             66.26    75.91    82.10    88.08    90.91
                               98.11   107.33   113.34   114.64   118.02
                              120.95   124.57   127.73   130.90   136.95
                              143.10   146.85   152.94   155.81   163.75
                              164.21   172.21   174.76   180.65   188.72
                              197.30   201.22   207.10   208.71   212.01
                              221.49   225.07   226.98   230.17   236.55
                              238.38   245.66   250.05   252.94   264.47
                              267.92   282.05   286.12   299.02   300.74
                              313.79   320.55   334.35   337.48   341.97
                              347.98   353.70   357.71   373.37   386.01
                              390.59   397.85   409.60   414.42   424.32
                              426.38   432.73   443.69   446.45   449.55
                              461.99   469.65   479.17   481.63   497.53
                              529.56   543.39   547.76   559.08   568.01
                              573.57   583.86   584.65   587.49   590.75
                              595.80   599.97   611.88   620.71   624.34
                              629.43   630.53   638.84   649.61   661.26
                              661.94   671.54   673.47   676.33   677.93
                              683.83   687.16   737.05   791.64   810.78
                              811.48   813.69   869.58  2930.19  2983.83
                             3033.19

 Zero-point correction=                           0.077369 (Hartree/Particle)
 Thermal correction to Energy=                    0.135621
 Thermal correction to Enthalpy=                  0.136565
 Thermal correction to Gibbs Free Energy=        -0.018893
 Sum of electronic and zero-point Energies=          -9844.327212
 Sum of electronic and thermal Energies=             -9844.268960
 Sum of electronic and thermal Enthalpies=           -9844.268016
 Sum of electronic and thermal Free Energies=        -9844.423474

                     E (Thermal)             CV                S
                      KCal/Mol        Cal/Mol-Kelvin    Cal/Mol-Kelvin
 Total                   85.103            189.704            327.188
 Electronic               0.000              0.000              0.000
 Translational            0.889              2.981             48.438
 Rotational               0.889              2.981             41.676
 Vibrational             83.326            183.742            237.074
 Vibration     1          0.593              1.986              6.902
 Vibration     2          0.593              1.985              6.373
 Vibration     3          0.594              1.982              5.468
 Vibration     4          0.594              1.981              5.186
 Vibration     5          0.595              1.980              5.062
 Vibration     6          0.595              1.979              4.980
 Vibration     7          0.596              1.977              4.711
 Vibration     8          0.596              1.975              4.556
 Vibration     9          0.597              1.973              4.417
 Vibration    10          0.597              1.972              4.355
 Vibration    11          0.598              1.969              4.205
 Vibration    12          0.599              1.966              4.028
 Vibration    13          0.600              1.963              3.921
 Vibration    14          0.600              1.963              3.899
 Vibration    15          0.600              1.961              3.842
 Vibration    16          0.601              1.960              3.794
 Vibration    17          0.601              1.959              3.736
 Vibration    18          0.602              1.957              3.687
 Vibration    19          0.602              1.956              3.639
 Vibration    20          0.603              1.953              3.551
 Vibration    21          0.604              1.949              3.465
 Vibration    22          0.604              1.948              3.414
 Vibration    23          0.605              1.944              3.335
 Vibration    24          0.606              1.943              3.299
 Vibration    25          0.607              1.938              3.203
 Vibration    26          0.607              1.938              3.197
 Vibration    27          0.609              1.933              3.105
 Vibration    28          0.609              1.931              3.077
 Vibration    29          0.611              1.928              3.013
 Vibration    30          0.612              1.922              2.929
 Vibration    31          0.614              1.916              2.844
 Vibration    32          0.615              1.913              2.806
 Vibration    33          0.616              1.909              2.751
 Vibration    34          0.616              1.908              2.736
 Vibration    35          0.617              1.906              2.706
 Vibration    36          0.619              1.898              2.623
 Vibration    37          0.620              1.895              2.593
 Vibration    38          0.621              1.894              2.576
 Vibration    39          0.622              1.891              2.550
 Vibration    40          0.623              1.886              2.498
 Vibration    41          0.624              1.885              2.484
 Vibration    42          0.626              1.878              2.427
 Vibration    43          0.627              1.875              2.394
 Vibration    44          0.628              1.872              2.373
 Vibration    45          0.631              1.862              2.289
 Vibration    46          0.632              1.859              2.265
 Vibration    47          0.636              1.845              2.170
 Vibration    48          0.637              1.841              2.144
 Vibration    49          0.641              1.829              2.063
 Vibration    50          0.642              1.827              2.052
 Vibration    51          0.646              1.814              1.975
 Vibration    52          0.648              1.806              1.936
 Vibration    53          0.653              1.791              1.860
 Vibration    54          0.654              1.788              1.844
 Vibration    55          0.656              1.783              1.820
 Vibration    56          0.658              1.776              1.789
 Vibration    57          0.660              1.770              1.760
 Vibration    58          0.662              1.765              1.740
 Vibration    59          0.668              1.747              1.665
 Vibration    60          0.673              1.731              1.607
 Vibration    61          0.675              1.726              1.587
 Vibration    62          0.678              1.717              1.555
 Vibration    63          0.683              1.702              1.505
 Vibration    64          0.685              1.696              1.485
 Vibration    65          0.689              1.683              1.446
 Vibration    66          0.690              1.681              1.437
 Vibration    67          0.693              1.672              1.413
 Vibration    68          0.698              1.658              1.371
 Vibration    69          0.699              1.654              1.361
 Vibration    70          0.701              1.650              1.349
 Vibration    71          0.707              1.633              1.305
 Vibration    72          0.710              1.623              1.278
 Vibration    73          0.715              1.610              1.245
 Vibration    74          0.716              1.606              1.237
 Vibration    75          0.724              1.584              1.185
 Vibration    76          0.741              1.538              1.088
 Vibration    77          0.748              1.518              1.048
 Vibration    78          0.750              1.511              1.036
 Vibration    79          0.757              1.495              1.006
 Vibration    80          0.762              1.481              0.982
 Vibration    81          0.765              1.473              0.968
 Vibration    82          0.771              1.458              0.942
 Vibration    83          0.771              1.456              0.940
 Vibration    84          0.773              1.452              0.933
 Vibration    85          0.775              1.447              0.925
 Vibration    86          0.778              1.440              0.912
 Vibration    87          0.780              1.433              0.902
 Vibration    88          0.787              1.415              0.874
 Vibration    89          0.792              1.402              0.854
 Vibration    90          0.795              1.396              0.846
 Vibration    91          0.798              1.388              0.835
 Vibration    92          0.798              1.387              0.832
 Vibration    93          0.804              1.374              0.814
 Vibration    94          0.810              1.358              0.791
 Vibration    95          0.818              1.340              0.767
 Vibration    96          0.818              1.339              0.766
 Vibration    97          0.824              1.324              0.747
 Vibration    98          0.825              1.321              0.743
 Vibration    99          0.827              1.316              0.737
 Vibration   100          0.828              1.314              0.734
 Vibration   101          0.832              1.305              0.723
 Vibration   102          0.834              1.300              0.717
 Vibration   103          0.867              1.223              0.628
 Vibration   104          0.906              1.139              0.544
 Vibration   105          0.919              1.110              0.517
 Vibration   106          0.920              1.109              0.516
 Vibration   107          0.921              1.106              0.513
 Vibration   108          0.963              1.022              0.442

                           ! Non-Optimized Parameters !
 Normal termination of Gaussian 16 at Fri Dec 16 22:16:53 2022.
