 Gaussian 16, Revision C.01,
 Gaussian 16:  ES64L-G16RevC.01  3-Jul-2019

 ---------------------------------------
 # opt freq b3lyp/gen nosymm pseudo=read
 ---------------------------------------

 -------------------
 Title Card Required
 -------------------
 Symbolic Z-matrix:
 Charge =  0 Multiplicity = 1

 SCF Done:  E(RB3LYP) =  -9731.03395929     A.U. after   42 cycles
 SCF Done:  E(RB3LYP) =  -9731.03396045     A.U. after   14 cycles
 SCF Done:  E(RB3LYP) =  -9731.03396108     A.U. after   15 cycles
 SCF Done:  E(RB3LYP) =  -9731.03396124     A.U. after   13 cycles
 SCF Done:  E(RB3LYP) =  -9731.03396138     A.U. after   13 cycles
 SCF Done:  E(RB3LYP) =  -9731.03396148     A.U. after   13 cycles
 Optimization completed.
    -- Stationary point found.
 Normal termination of Gaussian 16 at Sat Dec 17 09:54:08 2022.

 ------------------------------------------------------------------
 #N Geom=AllCheck Guess=TCheck SCRF=Check GenChk RB3LYP/ChkBas Freq
 ------------------------------------------------------------------

 Structure from the checkpoint file:  "/localscratch/chegho/Gau-225767.chk"
 -------------------
 Title Card Required
 -------------------
 Charge =  0 Multiplicity = 1

                          Input orientation:
 ---------------------------------------------------------------------
 Center     Atomic      Atomic             Coordinates (Angstroms)
 Number     Number       Type             X           Y           Z
 ---------------------------------------------------------------------
      1         42           0        0.285319    1.839170   12.329272
      2         16           0        1.299828    3.963561   12.233911
      3         16           0       -1.788378    2.419544   13.186357
      4         16           0       -0.424586    1.060487   10.189170
      5         16           0        2.179991    0.205377   11.892280
      6         42           0       -2.114250    2.653069   10.804157
      7         16           0       -2.907073    2.005434    8.497620
      8         16           0       -1.252785    4.766955   10.578094
      9         42           0        0.693315    3.241995    9.973168
     10         16           0       -0.033493    2.967377    7.523715
     11         16           0        2.635185    1.944420    9.194323
     12         42           0        3.000067    2.571975   11.453216
     13         42           0       -1.756314    4.276189    8.373614
     14         16           0        4.226078    2.534014   13.658916
     15         16           0        4.582967    4.307435   10.983097
     16         16           0       -4.069027    5.342178    8.424931
     17         16           0       -1.159687    6.407481    7.541789
     18         42           0       -4.595946    3.333346    9.257651
     19         16           0       -6.500024    2.630699    8.645931
     20         16           0       -4.382678    3.328963   11.501395
     21         42           0        2.761824    0.879120   14.014084
     22         16           0        3.606009   -0.669758   15.189431
     23         16           0        0.881313    1.674458   14.863304
     24         42           0        0.674736    5.187179    6.729550
     25         16           0       -0.059848    4.541909    4.648744
     26         16           0        1.511660    5.551441    9.367228
     27         42           0        3.290276    4.247237    9.076457
     28         16           0        2.951520    3.840358    6.600886
     29         16           0        4.784850    6.236324    8.381994
     30         42           0        3.732707    5.980161    6.451528
     31         16           0        5.053210    6.260800    4.822570
     32         16           0        1.862606    7.406520    6.359815
     33         42           0        1.020395    6.551860    4.286656
     34          6           0       -0.254933    8.041503    4.229429
     35          6           0        2.371468    7.557654    3.112268
     36          8           0       -1.065775    8.868011    4.241717
     37          8           0        3.134645    8.075750    2.423608
 ---------------------------------------------------------------------

 SCF Done:  E(RB3LYP) =  -9731.03396148     A.U. after    3 cycles

 Alpha  occ. eigenvalues --  -88.94458 -88.93114 -88.92753 -88.92412 -88.92401
 Alpha  occ. eigenvalues --  -88.92309 -88.92259 -88.91915 -88.91596 -88.91568
 Alpha  occ. eigenvalues --  -88.91000 -88.90068 -88.90048 -88.89749 -88.89694
 Alpha  occ. eigenvalues --  -88.89666 -88.89660 -88.88962 -88.88953 -88.88943
 Alpha  occ. eigenvalues --  -88.88475 -88.88100 -19.26976 -19.24588 -10.33767
 Alpha  occ. eigenvalues --  -10.32154  -8.01806  -8.00616  -8.00227  -7.99828
 Alpha  occ. eigenvalues --   -7.99754  -7.99750  -7.99718  -7.99299  -7.99109
 Alpha  occ. eigenvalues --   -7.98988  -7.98738  -7.97943  -7.97631  -7.97475
 Alpha  occ. eigenvalues --   -7.97411  -7.97366  -7.97196  -7.96702  -7.96699
 Alpha  occ. eigenvalues --   -7.96489  -7.96360  -7.96000  -5.97874  -5.97777
 Alpha  occ. eigenvalues --   -5.97687  -5.96640  -5.96621  -5.96484  -5.96282
 Alpha  occ. eigenvalues --   -5.96214  -5.96083  -5.95925  -5.95801  -5.95791
 Alpha  occ. eigenvalues --   -5.95772  -5.95754  -5.95749  -5.95744  -5.95694
 Alpha  occ. eigenvalues --   -5.95684  -5.95672  -5.95630  -5.95586  -5.95379
 Alpha  occ. eigenvalues --   -5.95321  -5.95127  -5.95119  -5.95101  -5.95031
 Alpha  occ. eigenvalues --   -5.94994  -5.94981  -5.94866  -5.94799  -5.94700
 Alpha  occ. eigenvalues --   -5.94559  -5.93913  -5.93875  -5.93853  -5.93742
 Alpha  occ. eigenvalues --   -5.93572  -5.93527  -5.93500  -5.93452  -5.93432
 Alpha  occ. eigenvalues --   -5.93398  -5.93367  -5.93352  -5.93320  -5.93318
 Alpha  occ. eigenvalues --   -5.93268  -5.93178  -5.93118  -5.93012  -5.92814
 Alpha  occ. eigenvalues --   -5.92810  -5.92656  -5.92649  -5.92629  -5.92482
 Alpha  occ. eigenvalues --   -5.92479  -5.92409  -5.92349  -5.92313  -5.92287
 Alpha  occ. eigenvalues --   -5.92256  -5.91983  -5.91940  -5.91887  -2.58612
 Alpha  occ. eigenvalues --   -2.57670  -2.57441  -2.57318  -2.56434  -2.55981
 Alpha  occ. eigenvalues --   -2.55722  -2.55207  -2.55066  -2.54515  -2.51594
 Alpha  occ. eigenvalues --   -1.61520  -1.60899  -1.60467  -1.60432  -1.60398
 Alpha  occ. eigenvalues --   -1.60073  -1.60048  -1.59757  -1.59655  -1.59634
 Alpha  occ. eigenvalues --   -1.59469  -1.59265  -1.59123  -1.59092  -1.58674
 Alpha  occ. eigenvalues --   -1.58566  -1.58502  -1.58441  -1.58193  -1.57780
 Alpha  occ. eigenvalues --   -1.57655  -1.57389  -1.57335  -1.57238  -1.56976
 Alpha  occ. eigenvalues --   -1.56891  -1.56701  -1.56534  -1.56400  -1.55994
 Alpha  occ. eigenvalues --   -1.54728  -1.54246  -1.53306  -1.16995  -1.14554
 Alpha  occ. eigenvalues --   -0.78431  -0.76707  -0.75921  -0.75702  -0.75101
 Alpha  occ. eigenvalues --   -0.74664  -0.74477  -0.74302  -0.73908  -0.73654
 Alpha  occ. eigenvalues --   -0.73083  -0.72527  -0.72252  -0.72100  -0.71950
 Alpha  occ. eigenvalues --   -0.71663  -0.71329  -0.71077  -0.70900  -0.70255
 Alpha  occ. eigenvalues --   -0.69662  -0.69294  -0.59842  -0.58068  -0.49043
 Alpha  occ. eigenvalues --   -0.48898  -0.48633  -0.47107  -0.46968  -0.46416
 Alpha  occ. eigenvalues --   -0.45727  -0.45390  -0.45201  -0.44269  -0.43253
 Alpha  occ. eigenvalues --   -0.43164  -0.42832  -0.42470  -0.42407  -0.42078
 Alpha  occ. eigenvalues --   -0.41733  -0.41345  -0.41041  -0.40678  -0.40513
 Alpha  occ. eigenvalues --   -0.40266  -0.40015  -0.39956  -0.39802  -0.39647
 Alpha  occ. eigenvalues --   -0.39304  -0.39100  -0.38881  -0.38727  -0.38550
 Alpha  occ. eigenvalues --   -0.38351  -0.38126  -0.37915  -0.37612  -0.37389
 Alpha  occ. eigenvalues --   -0.37267  -0.36687  -0.36578  -0.36463  -0.36295
 Alpha  occ. eigenvalues --   -0.36219  -0.36036  -0.35845  -0.35765  -0.35523
 Alpha  occ. eigenvalues --   -0.35404  -0.35227  -0.34942  -0.34855  -0.34572
 Alpha  occ. eigenvalues --   -0.34186  -0.33845  -0.33772  -0.33363  -0.33118
 Alpha  occ. eigenvalues --   -0.32901  -0.32687  -0.32393  -0.31955  -0.31598
 Alpha  occ. eigenvalues --   -0.31587  -0.31424  -0.30933  -0.30818  -0.30154
 Alpha  occ. eigenvalues --   -0.30089  -0.29690  -0.29512  -0.29144  -0.29043
 Alpha  occ. eigenvalues --   -0.28725  -0.28125  -0.27198  -0.27024  -0.26502
 Alpha  occ. eigenvalues --   -0.26270  -0.26094  -0.25148  -0.24698  -0.24449
 Alpha  occ. eigenvalues --   -0.23795  -0.23400
 Alpha virt. eigenvalues --   -0.18288  -0.17794  -0.17212  -0.16685  -0.16214
 Alpha virt. eigenvalues --   -0.15922  -0.15504  -0.15424  -0.14905  -0.14515
 Alpha virt. eigenvalues --   -0.14440  -0.14387  -0.14097  -0.13742  -0.13391

 Mulliken charges:
               1
     1  Mo  -0.209233
     2  S    0.401446
     3  S    0.051167
     4  S    0.205842
     5  S    0.078056
     6  Mo  -0.212224
     7  S    0.123367
     8  S    0.324085
     9  Mo  -0.850926
    10  S    0.170476
    11  S    0.206175
    12  Mo  -0.253411
    13  Mo  -0.180382
    14  S   -0.021713
    15  S    0.072023
    16  S   -0.010671
    17  S    0.150822
    18  Mo   0.270113
    19  S   -0.196461
    20  S    0.016771
    21  Mo   0.287434
    22  S   -0.193824
    23  S   -0.027682
    24  Mo  -0.759000
    25  S    0.037517
    26  S    0.224651
    27  Mo  -0.144188
    28  S    0.090990
    29  S    0.013560
    30  Mo   0.239462
    31  S   -0.163160
    32  S    0.093530
    33  Mo   0.198788
    34  C    0.213262
    35  C    0.195219
    36  O   -0.233674
    37  O   -0.208209
 Sum of Mulliken charges =  -0.00000

 Dipole moment (field-independent basis, Debye):
    X=              1.6700    Y=              0.1751    Z=             -4.7162  Tot=              5.0062
 Quadrupole moment (field-independent basis, Debye-Ang):
   XX=           -574.7451   YY=           -566.2606   ZZ=           -649.9242
   XY=              9.9813   XZ=              5.5480   YZ=            -13.1842

  Exact polarizability:    1203.820      49.120     796.982      17.429    -433.598    1197.173
 Approx polarizability:    4013.732     223.839    2596.611     -91.427   -1059.722    3596.766

                      1                      2                      3
                      A                      A                      A
 Frequencies --     19.3996                27.8594                39.3414
 Red. masses --     19.5110                28.6990                30.0750
 Frc consts  --      0.0043                 0.0131                 0.0274
 IR Inten    --      0.1446                 0.3326                 0.2824

                      4                      5                      6
                      A                      A                      A
 Frequencies --     42.7417                46.5171                48.2719
 Red. masses --     34.3191                40.9317                32.3483
 Frc consts  --      0.0369                 0.0522                 0.0444
 IR Inten    --      0.5032                 0.0997                 0.6833

                      7                      8                      9
                      A                      A                      A
 Frequencies --     55.1997                56.1136                63.0674
 Red. masses --     38.1016                30.2239                25.9755
 Frc consts  --      0.0684                 0.0561                 0.0609
 IR Inten    --      0.3944                 0.2668                 0.3669

                     10                     11                     12
                      A                      A                      A
 Frequencies --     63.7254                71.8955                73.7023
 Red. masses --     32.0797                28.9760                38.9572
 Frc consts  --      0.0768                 0.0882                 0.1247
 IR Inten    --      0.0251                 0.1320                 2.5789

                     13                     14                     15
                      A                      A                      A
 Frequencies --     76.6549                79.7331                83.7485
 Red. masses --     35.1590                32.5023                36.8044
 Frc consts  --      0.1217                 0.1217                 0.1521
 IR Inten    --      0.2464                 0.1898                 0.2381

                     16                     17                     18
                      A                      A                      A
 Frequencies --     88.5379                88.7294                92.8869
 Red. masses --     33.4931                27.9044                41.5033
 Frc consts  --      0.1547                 0.1294                 0.2110
 IR Inten    --      1.7941                 1.4503                 1.1078

                     19                     20                     21
                      A                      A                      A
 Frequencies --     96.1979                99.0646               103.3435
 Red. masses --     29.2996                36.3796                41.2371
 Frc consts  --      0.1598                 0.2104                 0.2595
 IR Inten    --      0.7565                 0.9729                 0.6501

                     22                     23                     24
                      A                      A                      A
 Frequencies --    108.6166               110.5699               114.8360
 Red. masses --     45.6890                46.5084                48.9962
 Frc consts  --      0.3176                 0.3350                 0.3807
 IR Inten    --      0.2744                 0.3816                 2.5531

                     25                     26                     27
                      A                      A                      A
 Frequencies --    118.9339               121.9444               125.0211
 Red. masses --     46.7015                41.7405                50.9717
 Frc consts  --      0.3892                 0.3657                 0.4694
 IR Inten    --      2.5970                 0.6440                 1.3919

                     28                     29                     30
                      A                      A                      A
 Frequencies --    131.1170               135.5758               138.8923
 Red. masses --     45.7445                43.3412                43.4532
 Frc consts  --      0.4633                 0.4694                 0.4939
 IR Inten    --      1.3570                 0.6082                 0.6506

                     31                     32                     33
                      A                      A                      A
 Frequencies --    143.1874               145.0079               146.5020
 Red. masses --     41.3164                50.4539                42.7826
 Frc consts  --      0.4991                 0.6251                 0.5410
 IR Inten    --      1.0874                 0.9256                 0.5876

                     34                     35                     36
                      A                      A                      A
 Frequencies --    153.6506               156.4183               157.9667
 Red. masses --     44.1115                48.2131                38.7648
 Frc consts  --      0.6136                 0.6950                 0.5699
 IR Inten    --      3.3197                 1.0345                 1.2815

                     37                     38                     39
                      A                      A                      A
 Frequencies --    159.7195               161.5361               165.0336
 Red. masses --     46.4054                47.6080                51.2511
 Frc consts  --      0.6975                 0.7319                 0.8224
 IR Inten    --      0.8704                 0.5881                 3.3425

                     40                     41                     42
                      A                      A                      A
 Frequencies --    169.7256               173.0983               176.4495
 Red. masses --     43.9886                53.5742                46.2741
 Frc consts  --      0.7466                 0.9458                 0.8488
 IR Inten    --      1.9245                 1.1011                 9.4076

                     43                     44                     45
                      A                      A                      A
 Frequencies --    186.0504               187.7988               197.6105
 Red. masses --     49.4772                45.9742                40.7476
 Frc consts  --      1.0091                 0.9553                 0.9375
 IR Inten    --      2.3810                 1.5314                 3.2483

                     46                     47                     48
                      A                      A                      A
 Frequencies --    199.8767               208.3088               208.8615
 Red. masses --     39.5704                41.1531                41.6798
 Frc consts  --      0.9314                 1.0521                 1.0713
 IR Inten    --      3.7211                 2.2414                 3.5647

                     49                     50                     51
                      A                      A                      A
 Frequencies --    218.8166               221.9894               228.3832
 Red. masses --     42.5342                39.8505                35.2464
 Frc consts  --      1.1999                 1.1570                 1.0832
 IR Inten    --      0.7435                 0.4606                 3.5007

                     52                     53                     54
                      A                      A                      A
 Frequencies --    233.1923               236.8303               241.9071
 Red. masses --     35.6695                36.9969                35.7459
 Frc consts  --      1.1428                 1.2226                 1.2325
 IR Inten    --      4.6295                 1.9962                 1.1438

                     55                     56                     57
                      A                      A                      A
 Frequencies --    246.0252               249.5514               256.8140
 Red. masses --     38.8055                36.0624                34.3619
 Frc consts  --      1.3839                 1.3232                 1.3353
 IR Inten    --      0.5466                10.8545                 1.1861

                     58                     59                     60
                      A                      A                      A
 Frequencies --    266.7689               273.1390               275.9897
 Red. masses --     34.9484                35.3382                35.1967
 Frc consts  --      1.4654                 1.5533                 1.5796
 IR Inten    --      1.9836                 0.2026                 8.4408

                     61                     62                     63
                      A                      A                      A
 Frequencies --    286.1736               289.2928               295.6974
 Red. masses --     36.7581                35.5659                35.5436
 Frc consts  --      1.7736                 1.7537                 1.8311
 IR Inten    --      1.6500                 1.3280                 6.1543

                     64                     65                     66
                      A                      A                      A
 Frequencies --    297.1150               301.7694               307.9344
 Red. masses --     38.7357                35.4408                35.9202
 Frc consts  --      2.0147                 1.9015                 2.0068
 IR Inten    --      8.5226                 1.4783                 4.8762

                     67                     68                     69
                      A                      A                      A
 Frequencies --    309.9885               311.1509               327.2694
 Red. masses --     37.8387                34.9702                35.2242
 Frc consts  --      2.1423                 1.9948                 2.2228
 IR Inten    --      2.0053                 0.5705                 1.8214

                     70                     71                     72
                      A                      A                      A
 Frequencies --    332.8685               335.3480               337.8454
 Red. masses --     31.2874                38.3651                34.5748
 Frc consts  --      2.0425                 2.5420                 2.3251
 IR Inten    --      3.4792                 2.9531                 3.8915

                     73                     74                     75
                      A                      A                      A
 Frequencies --    346.7047               367.5295               376.0795
 Red. masses --     37.4048                40.4150                33.6417
 Frc consts  --      2.6491                 3.2165                 2.8034
 IR Inten    --      0.9782                 1.4246                 0.3255

                     76                     77                     78
                      A                      A                      A
 Frequencies --    379.4526               381.1444               389.3445
 Red. masses --     33.9612                15.0838                17.8731
 Frc consts  --      2.8810                 1.2910                 1.5963
 IR Inten    --      7.2994                 5.8352                47.7941

                     79                     80                     81
                      A                      A                      A
 Frequencies --    391.5662               399.2359               404.5005
 Red. masses --     29.1664                18.5954                33.5696
 Frc consts  --      2.6348                 1.7463                 3.2362
 IR Inten    --      3.4649                 3.3726                 0.4411

                     82                     83                     84
                      A                      A                      A
 Frequencies --    405.4291               408.6991               411.9804
 Red. masses --     35.7508                37.2969                35.8550
 Frc consts  --      3.4623                 3.6705                 3.5855
 IR Inten    --      2.2085                 3.9971                 0.4949

                     85                     86                     87
                      A                      A                      A
 Frequencies --    415.4093               431.0104               434.3283
 Red. masses --     37.8649                34.5147                33.1353
 Frc consts  --      3.8498                 3.7777                 3.6828
 IR Inten    --      6.0526                 1.5187                 2.7663

                     88                     89                     90
                      A                      A                      A
 Frequencies --    436.7321               437.9925               444.8641
 Red. masses --     32.5894                28.9075                19.2706
 Frc consts  --      3.6623                 3.2673                 2.2470
 IR Inten    --      1.4791                 7.4648                 3.9203

                     91                     92                     93
                      A                      A                      A
 Frequencies --    451.0385               457.9274               460.3414
 Red. masses --     39.2801                38.7824                37.1785
 Frc consts  --      4.7081                 4.7916                 4.6420
 IR Inten    --      5.5354                11.7803                11.8647

                     94                     95                     96
                      A                      A                      A
 Frequencies --    463.5129               465.9038               468.0926
 Red. masses --     38.7305                19.0322                38.9380
 Frc consts  --      4.9026                 2.4341                 5.0267
 IR Inten    --      6.2405                34.7666                 5.0165

                     97                     98                     99
                      A                      A                      A
 Frequencies --    472.0681               475.1954               493.7982
 Red. masses --     36.3846                39.2812                18.1041
 Frc consts  --      4.7772                 5.2261                 2.6009
 IR Inten    --     19.1980                14.5123                 1.5976

                    100                    101                    102
                      A                      A                      A
 Frequencies --    558.2979               562.9043               564.4869
 Red. masses --     31.6840                39.8753                39.9496
 Frc consts  --      5.8187                 7.4443                 7.5001
 IR Inten    --    178.1106               266.9871               102.6792

                    103                    104                    105
                      A                      A                      A
 Frequencies --    568.2807              2023.6130              2083.7905
 Red. masses --     14.7632                13.3948                13.3860
 Frc consts  --      2.8090                32.3177                34.2459
 IR Inten    --     35.3282               894.8202              2480.9665

 - Thermochemistry -
 -------------------
 Temperature   298.150 Kelvin.  Pressure   1.00000 Atm.
 Atom     1 has atomic number 42 and mass  97.90550

 Molecular mass:  1836.33591 amu.
 Principal axes and moments of inertia in atomic units:
                           1         2         3
     Eigenvalues --  ******************************
           X           -0.04436   0.99652  -0.07053
           Y           -0.53257   0.03614   0.84561
           Z            0.84522   0.07507   0.52912
 This molecule is an asymmetric top.
 Rotational symmetry number  1.
 Warning -- assumption of classical behavior for rotation
           may cause significant error
 Rotational temperatures (Kelvin)      0.00160     0.00106     0.00069
 Rotational constants (GHZ):           0.03337     0.02202     0.01435
 Zero-point vibrational energy     180230.3 (Joules/Mol)
                                   43.07608 (Kcal/Mol)
 Warning -- explicit consideration of 103 degrees of freedom as
           vibrations may cause significant error
 Vibrational temperatures:     27.91    40.08    56.60    61.50    66.93
          (Kelvin)             69.45    79.42    80.73    90.74    91.69
                              103.44   106.04   110.29   114.72   120.50
                              127.39   127.66   133.64   138.41   142.53
                              148.69   156.28   159.09   165.22   171.12
                              175.45   179.88   188.65   195.06   199.84
                              206.01   208.63   210.78   221.07   225.05
                              227.28   229.80   232.41   237.45   244.20
                              249.05   253.87   267.69   270.20   284.32
                              287.58   299.71   300.51   314.83   319.39
                              328.59   335.51   340.75   348.05   353.98
                              359.05   369.50   383.82   392.99   397.09
                              411.74   416.23   425.44   427.48   434.18
                              443.05   446.00   447.68   470.87   478.92
                              482.49   486.08   498.83   528.79   541.09
                              545.95   548.38   560.18   563.38   574.41
                              581.99   583.32   588.03   592.75   597.68
                              620.13   624.90   628.36   630.17   640.06
                              648.94   658.86   662.33   666.89   670.33
                              673.48   679.20   683.70   710.47   803.27
                              809.89   812.17   817.63  2911.53  2998.11

 Zero-point correction=                           0.068646 (Hartree/Particle)
 Thermal correction to Energy=                    0.124716
 Thermal correction to Enthalpy=                  0.125660
 Thermal correction to Gibbs Free Energy=        -0.024833
 Sum of electronic and zero-point Energies=          -9730.965315
 Sum of electronic and thermal Energies=             -9730.909245
 Sum of electronic and thermal Enthalpies=           -9730.908301
 Sum of electronic and thermal Free Energies=        -9731.058794

                     E (Thermal)             CV                S
                      KCal/Mol        Cal/Mol-Kelvin    Cal/Mol-Kelvin
 Total                   78.261            182.140            316.739
 Electronic               0.000              0.000              0.000
 Translational            0.889              2.981             48.393
 Rotational               0.889              2.981             41.540
 Vibrational             76.483            176.178            226.806
 Vibration     1          0.593              1.986              6.695
 Vibration     2          0.593              1.984              5.976
 Vibration     3          0.594              1.981              5.292
 Vibration     4          0.595              1.980              5.128
 Vibration     5          0.595              1.979              4.960
 Vibration     6          0.595              1.978              4.887
 Vibration     7          0.596              1.975              4.622
 Vibration     8          0.596              1.975              4.589
 Vibration     9          0.597              1.972              4.359
 Vibration    10          0.597              1.972              4.338
 Vibration    11          0.598              1.967              4.101
 Vibration    12          0.599              1.966              4.052
 Vibration    13          0.599              1.965              3.975
 Vibration    14          0.600              1.963              3.897
 Vibration    15          0.601              1.960              3.801
 Vibration    16          0.601              1.957              3.692
 Vibration    17          0.602              1.957              3.688
 Vibration    18          0.602              1.954              3.598
 Vibration    19          0.603              1.952              3.530
 Vibration    20          0.604              1.950              3.473
 Vibration    21          0.605              1.947              3.390
 Vibration    22          0.606              1.942              3.293
 Vibration    23          0.606              1.941              3.259
 Vibration    24          0.608              1.937              3.185
 Vibration    25          0.609              1.934              3.118
 Vibration    26          0.609              1.931              3.069
 Vibration    27          0.610              1.928              3.021
 Vibration    28          0.612              1.922              2.930
 Vibration    29          0.613              1.918              2.865
 Vibration    30          0.615              1.914              2.819
 Vibration    31          0.616              1.910              2.761
 Vibration    32          0.616              1.908              2.737
 Vibration    33          0.617              1.906              2.717
 Vibration    34          0.619              1.899              2.627
 Vibration    35          0.620              1.895              2.593
 Vibration    36          0.621              1.894              2.574
 Vibration    37          0.622              1.892              2.553
 Vibration    38          0.622              1.890              2.532
 Vibration    39          0.623              1.885              2.491
 Vibration    40          0.625              1.880              2.439
 Vibration    41          0.627              1.876              2.402
 Vibration    42          0.628              1.871              2.366
 Vibration    43          0.632              1.859              2.267
 Vibration    44          0.632              1.857              2.249
 Vibration    45          0.637              1.843              2.155
 Vibration    46          0.638              1.840              2.134
 Vibration    47          0.642              1.828              2.058
 Vibration    48          0.642              1.827              2.054
 Vibration    49          0.647              1.812              1.969
 Vibration    50          0.648              1.808              1.943
 Vibration    51          0.651              1.798              1.892
 Vibration    52          0.654              1.790              1.854
 Vibration    53          0.656              1.784              1.827
 Vibration    54          0.658              1.776              1.789
 Vibration    55          0.660              1.769              1.759
 Vibration    56          0.662              1.764              1.734
 Vibration    57          0.666              1.751              1.683
 Vibration    58          0.672              1.734              1.617
 Vibration    59          0.676              1.723              1.576
 Vibration    60          0.678              1.718              1.558
 Vibration    61          0.684              1.699              1.496
 Vibration    62          0.686              1.694              1.478
 Vibration    63          0.690              1.682              1.441
 Vibration    64          0.691              1.679              1.433
 Vibration    65          0.694              1.670              1.407
 Vibration    66          0.698              1.659              1.373
 Vibration    67          0.699              1.655              1.362
 Vibration    68          0.700              1.652              1.356
 Vibration    69          0.711              1.621              1.274
 Vibration    70          0.715              1.610              1.246
 Vibration    71          0.716              1.605              1.234
 Vibration    72          0.718              1.600              1.222
 Vibration    73          0.725              1.582              1.181
 Vibration    74          0.740              1.539              1.090
 Vibration    75          0.747              1.521              1.055
 Vibration    76          0.749              1.514              1.041
 Vibration    77          0.751              1.510              1.035
 Vibration    78          0.757              1.493              1.003
 Vibration    79          0.759              1.488              0.994
 Vibration    80          0.765              1.472              0.965
 Vibration    81          0.770              1.460              0.946
 Vibration    82          0.770              1.458              0.943
 Vibration    83          0.773              1.451              0.931
 Vibration    84          0.776              1.444              0.920
 Vibration    85          0.779              1.437              0.908
 Vibration    86          0.792              1.403              0.855
 Vibration    87          0.795              1.395              0.845
 Vibration    88          0.797              1.390              0.837
 Vibration    89          0.798              1.387              0.833
 Vibration    90          0.804              1.372              0.811
 Vibration    91          0.810              1.359              0.793
 Vibration    92          0.816              1.343              0.772
 Vibration    93          0.818              1.338              0.765
 Vibration    94          0.821              1.331              0.756
 Vibration    95          0.823              1.326              0.749
 Vibration    96          0.825              1.321              0.743
 Vibration    97          0.829              1.312              0.732
 Vibration    98          0.832              1.305              0.723
 Vibration    99          0.849              1.264              0.674
 Vibration   100          0.914              1.122              0.527
 Vibration   101          0.919              1.112              0.518
 Vibration   102          0.920              1.108              0.515
 Vibration   103          0.924              1.100              0.508

                           ! Non-Optimized Parameters !
 Normal termination of Gaussian 16 at Sat Dec 17 10:17:49 2022.
