 Gaussian 16, Revision C.01,
 Gaussian 16:  ES64L-G16RevC.01  3-Jul-2019

 ---------------------------------------
 # opt freq b3lyp/gen nosymm pseudo=read
 ---------------------------------------

 -------------------
 Title Card Required
 -------------------
 Symbolic Z-matrix:
 Charge =  0 Multiplicity = 1

 SCF Done:  E(RB3LYP) =  -9617.65900187     A.U. after   38 cycles
 SCF Done:  E(RB3LYP) =  -9617.65900278     A.U. after   15 cycles
 SCF Done:  E(RB3LYP) =  -9617.65900338     A.U. after   16 cycles
 SCF Done:  E(RB3LYP) =  -9617.65900366     A.U. after   15 cycles
 SCF Done:  E(RB3LYP) =  -9617.65900390     A.U. after   15 cycles
 Optimization completed.
    -- Stationary point found.
 Normal termination of Gaussian 16 at Sat Dec 17 11:28:38 2022.

 ------------------------------------------------------------------
 #N Geom=AllCheck Guess=TCheck SCRF=Check GenChk RB3LYP/ChkBas Freq
 ------------------------------------------------------------------

 Structure from the checkpoint file:  "/localscratch/chegho/Gau-39183.chk"
 -------------------
 Title Card Required
 -------------------
 Charge =  0 Multiplicity = 1

                          Input orientation:
 ---------------------------------------------------------------------
 Center     Atomic      Atomic             Coordinates (Angstroms)
 Number     Number       Type             X           Y           Z
 ---------------------------------------------------------------------
      1         42           0        0.276446    1.513889   12.167200
      2         16           0        1.209936    3.661217   12.440308
      3         16           0       -1.861065    1.890571   12.986552
      4         16           0       -0.302033    1.044093    9.900037
      5         16           0        2.253593    0.026327   11.582892
      6         42           0       -2.078770    2.468864   10.652998
      7         16           0       -2.753087    2.150687    8.260052
      8         16           0       -1.296686    4.620941   10.804930
      9         42           0        0.739536    3.267510   10.073222
     10         16           0        0.105714    3.366428    7.582033
     11         16           0        2.755301    2.165132    9.192109
     12         42           0        2.993354    2.456290   11.532754
     13         42           0       -1.735761    4.462883    8.539634
     14         16           0        4.118661    2.127228   13.776784
     15         16           0        4.518655    4.295121   11.407039
     16         16           0       -4.011233    5.467199    8.641364
     17         16           0       -1.085548    6.745511    8.131275
     18         42           0       -4.517623    3.318306    9.098840
     19         16           0       -6.358546    2.685601    8.256714
     20         16           0       -4.420724    2.968883   11.317993
     21         42           0        2.708615    0.393220   13.809366
     22         16           0        3.559732   -1.286506   14.783744
     23         16           0        0.758170    0.986800   14.669857
     24         42           0        0.735611    5.680051    7.169923
     25         16           0       -0.155206    5.413482    5.030530
     26         16           0        1.474501    5.661225    9.836708
     27         42           0        3.326298    4.489595    9.440318
     28         16           0        3.141054    4.402051    6.928860
     29         16           0        4.660845    6.646274    9.185633
     30         42           0        3.896681    6.555504    7.098637
     31         16           0        5.469530    7.203740    5.837216
     32         16           0        2.012919    7.937629    7.069875
     33         42           0        1.355448    7.109833    4.924559
     34          6           0        2.811360    6.202634    4.035954
     35          8           0        3.547086    5.534412    3.427307
 ---------------------------------------------------------------------

 SCF Done:  E(RB3LYP) =  -9617.65900390     A.U. after    2 cycles

 Alpha  occ. eigenvalues --  -88.94166 -88.92455 -88.92367 -88.92228 -88.92060
 Alpha  occ. eigenvalues --  -88.91979 -88.91860 -88.91665 -88.91304 -88.91259
 Alpha  occ. eigenvalues --  -88.90510 -88.89862 -88.89733 -88.89704 -88.89571
 Alpha  occ. eigenvalues --  -88.89522 -88.89504 -88.88641 -88.88618 -88.88615
 Alpha  occ. eigenvalues --  -88.88249 -88.87774 -19.23449 -10.31294  -8.01526
 Alpha  occ. eigenvalues --   -7.99960  -7.99860  -7.99717  -7.99676  -7.99320
 Alpha  occ. eigenvalues --   -7.99261  -7.99043  -7.98772  -7.98727  -7.98241
 Alpha  occ. eigenvalues --   -7.97638  -7.97413  -7.97398  -7.97314  -7.97220
 Alpha  occ. eigenvalues --   -7.97077  -7.96365  -7.96357  -7.96186  -7.96129
 Alpha  occ. eigenvalues --   -7.95675  -5.97589  -5.97497  -5.97407  -5.95986
 Alpha  occ. eigenvalues --   -5.95959  -5.95920  -5.95848  -5.95829  -5.95746
 Alpha  occ. eigenvalues --   -5.95741  -5.95719  -5.95705  -5.95606  -5.95586
 Alpha  occ. eigenvalues --   -5.95555  -5.95336  -5.95320  -5.95309  -5.95258
 Alpha  occ. eigenvalues --   -5.95237  -5.95131  -5.95128  -5.95057  -5.94864
 Alpha  occ. eigenvalues --   -5.94790  -5.94770  -5.94764  -5.94721  -5.94658
 Alpha  occ. eigenvalues --   -5.94604  -5.94331  -5.94172  -5.94062  -5.93632
 Alpha  occ. eigenvalues --   -5.93577  -5.93550  -5.93499  -5.93421  -5.93368
 Alpha  occ. eigenvalues --   -5.93366  -5.93329  -5.93303  -5.93301  -5.93233
 Alpha  occ. eigenvalues --   -5.93226  -5.93214  -5.93183  -5.93176  -5.93033
 Alpha  occ. eigenvalues --   -5.93005  -5.92887  -5.92477  -5.92468  -5.92324
 Alpha  occ. eigenvalues --   -5.92319  -5.92308  -5.92142  -5.92139  -5.92122
 Alpha  occ. eigenvalues --   -5.92108  -5.92046  -5.92035  -5.92011  -5.91657
 Alpha  occ. eigenvalues --   -5.91615  -5.91562  -2.58538  -2.57439  -2.57018
 Alpha  occ. eigenvalues --   -2.56996  -2.56296  -2.55997  -2.55463  -2.54854
 Alpha  occ. eigenvalues --   -2.54712  -2.54201  -2.52200  -1.61353  -1.60827
 Alpha  occ. eigenvalues --   -1.60280  -1.60212  -1.60034  -1.59825  -1.59722
 Alpha  occ. eigenvalues --   -1.59423  -1.59400  -1.59308  -1.59157  -1.59028
 Alpha  occ. eigenvalues --   -1.58942  -1.58746  -1.58654  -1.58481  -1.58296
 Alpha  occ. eigenvalues --   -1.58226  -1.57919  -1.57797  -1.57365  -1.57267
 Alpha  occ. eigenvalues --   -1.57062  -1.56863  -1.56661  -1.56544  -1.56379
 Alpha  occ. eigenvalues --   -1.56178  -1.56081  -1.55666  -1.55406  -1.54769
 Alpha  occ. eigenvalues --   -1.53812  -1.13317  -0.78141  -0.76318  -0.75717
 Alpha  occ. eigenvalues --   -0.75463  -0.74786  -0.74559  -0.74170  -0.73933
 Alpha  occ. eigenvalues --   -0.73650  -0.73420  -0.72687  -0.72404  -0.72347
 Alpha  occ. eigenvalues --   -0.71763  -0.71741  -0.71349  -0.71004  -0.70808
 Alpha  occ. eigenvalues --   -0.70576  -0.69961  -0.69446  -0.68979  -0.57707
 Alpha  occ. eigenvalues --   -0.46890  -0.46656  -0.46134  -0.45466  -0.45101
 Alpha  occ. eigenvalues --   -0.44837  -0.43973  -0.43028  -0.42807  -0.42529
 Alpha  occ. eigenvalues --   -0.42264  -0.42124  -0.41717  -0.41448  -0.41123
 Alpha  occ. eigenvalues --   -0.40854  -0.40497  -0.40410  -0.40001  -0.39765
 Alpha  occ. eigenvalues --   -0.39679  -0.39524  -0.39516  -0.39149  -0.38867
 Alpha  occ. eigenvalues --   -0.38726  -0.38591  -0.38264  -0.38096  -0.37881
 Alpha  occ. eigenvalues --   -0.37813  -0.37234  -0.37182  -0.36886  -0.36529
 Alpha  occ. eigenvalues --   -0.36375  -0.36323  -0.36061  -0.36036  -0.35816
 Alpha  occ. eigenvalues --   -0.35751  -0.35604  -0.35462  -0.35166  -0.35040
 Alpha  occ. eigenvalues --   -0.34739  -0.34665  -0.34438  -0.33875  -0.33628
 Alpha  occ. eigenvalues --   -0.33349  -0.33242  -0.32848  -0.32695  -0.32387
 Alpha  occ. eigenvalues --   -0.32112  -0.31683  -0.31559  -0.31410  -0.31175
 Alpha  occ. eigenvalues --   -0.30807  -0.30589  -0.30042  -0.29588  -0.29438
 Alpha  occ. eigenvalues --   -0.29349  -0.28846  -0.28735  -0.28439  -0.27911
 Alpha  occ. eigenvalues --   -0.27441  -0.26918  -0.26363  -0.25985  -0.25849
 Alpha  occ. eigenvalues --   -0.24938  -0.24806  -0.24183  -0.23330  -0.22544
 Alpha virt. eigenvalues --   -0.17962  -0.17348  -0.16906  -0.16552  -0.16132
 Alpha virt. eigenvalues --   -0.15702  -0.15213  -0.14851  -0.14686  -0.14585
 Alpha virt. eigenvalues --   -0.14379  -0.14140  -0.13984  -0.13649  -0.13270

 Mulliken charges:
               1
     1  Mo  -0.211792
     2  S    0.401861
     3  S    0.049252
     4  S    0.204843
     5  S    0.076893
     6  Mo  -0.219442
     7  S    0.130655
     8  S    0.321172
     9  Mo  -0.835568
    10  S    0.162784
    11  S    0.209437
    12  Mo  -0.264750
    13  Mo  -0.213314
    14  S   -0.025402
    15  S    0.071099
    16  S   -0.001110
    17  S    0.146815
    18  Mo   0.266875
    19  S   -0.204008
    20  S    0.012971
    21  Mo   0.285149
    22  S   -0.196987
    23  S   -0.029498
    24  Mo  -0.655392
    25  S    0.041993
    26  S    0.213307
    27  Mo  -0.145032
    28  S    0.068322
    29  S    0.038526
    30  Mo   0.176622
    31  S   -0.149200
    32  S    0.022982
    33  Mo   0.307749
    34  C    0.190515
    35  O   -0.248329
 Sum of Mulliken charges =  -0.00000

 Dipole moment (field-independent basis, Debye):
    X=              0.5418    Y=              3.9129    Z=             -5.7715  Tot=              6.9939
 Quadrupole moment (field-independent basis, Debye-Ang):
   XX=           -570.6993   YY=           -509.1642   ZZ=           -660.0916
   XY=              6.3054   XZ=              0.6992   YZ=              0.8638

  Exact polarizability:    1200.988      86.559     839.387      26.035    -393.139    1044.262
 Approx polarizability:    3978.579     355.015    2795.259     -65.760   -1031.835    3323.503

                      1                      2                      3
                      A                      A                      A
 Frequencies --     29.6043                30.7744                39.8266
 Red. masses --     28.3139                29.0558                39.8495
 Frc consts  --      0.0146                 0.0162                 0.0372
 IR Inten    --      0.2527                 0.1852                 0.1555

                      4                      5                      6
                      A                      A                      A
 Frequencies --     44.2241                46.1788                54.1039
 Red. masses --     36.6658                38.6282                41.4302
 Frc consts  --      0.0423                 0.0485                 0.0715
 IR Inten    --      0.1952                 0.1482                 0.4664

                      7                      8                      9
                      A                      A                      A
 Frequencies --     57.8647                65.0225                66.1292
 Red. masses --     34.4983                44.1591                41.5483
 Frc consts  --      0.0681                 0.1100                 0.1071
 IR Inten    --      0.0952                 0.1481                 1.9297

                     10                     11                     12
                      A                      A                      A
 Frequencies --     70.2486                76.7535                79.0197
 Red. masses --     42.6960                45.4426                37.3153
 Frc consts  --      0.1241                 0.1577                 0.1373
 IR Inten    --      0.3906                 0.0569                 1.7786

                     13                     14                     15
                      A                      A                      A
 Frequencies --     84.7707                87.8118                89.8782
 Red. masses --     46.8271                38.1284                39.7446
 Frc consts  --      0.1983                 0.1732                 0.1892
 IR Inten    --      0.0619                 2.4980                 0.5317

                     16                     17                     18
                      A                      A                      A
 Frequencies --     93.3462                97.5989               101.1167
 Red. masses --     39.0150                34.4864                40.9607
 Frc consts  --      0.2003                 0.1935                 0.2468
 IR Inten    --      2.1730                 3.1816                 0.5574

                     19                     20                     21
                      A                      A                      A
 Frequencies --    108.2264               111.2882               112.3270
 Red. masses --     44.4292                41.7269                44.9955
 Frc consts  --      0.3066                 0.3045                 0.3345
 IR Inten    --      0.6938                 0.3170                 0.2111

                     22                     23                     24
                      A                      A                      A
 Frequencies --    114.5181               116.9783               118.4927
 Red. masses --     32.8855                37.1496                34.6803
 Frc consts  --      0.2541                 0.2995                 0.2869
 IR Inten    --      2.2179                 0.0292                 1.3127

                     25                     26                     27
                      A                      A                      A
 Frequencies --    123.6386               126.8884               137.1734
 Red. masses --     54.1099                46.9432                49.0153
 Frc consts  --      0.4873                 0.4453                 0.5434
 IR Inten    --      2.3704                 0.9687                 0.1196

                     28                     29                     30
                      A                      A                      A
 Frequencies --    140.0202               144.9469               145.2854
 Red. masses --     41.4848                49.3111                45.3812
 Frc consts  --      0.4792                 0.6104                 0.5644
 IR Inten    --      0.4396                 0.0561                 0.6458

                     31                     32                     33
                      A                      A                      A
 Frequencies --    149.5774               151.8684               153.9935
 Red. masses --     42.6380                36.9313                44.1385
 Frc consts  --      0.5621                 0.5019                 0.6167
 IR Inten    --      2.2449                 0.5303                 2.5815

                     34                     35                     36
                      A                      A                      A
 Frequencies --    158.2193               159.3697               161.6613
 Red. masses --     48.3707                38.8890                44.2101
 Frc consts  --      0.7134                 0.5820                 0.6807
 IR Inten    --      0.0580                 0.7067                 0.9447

                     37                     38                     39
                      A                      A                      A
 Frequencies --    166.9532               172.8027               174.8036
 Red. masses --     47.0635                43.4941                55.6834
 Frc consts  --      0.7729                 0.7652                 1.0025
 IR Inten    --      0.8910                 0.8605                 2.9456

                     40                     41                     42
                      A                      A                      A
 Frequencies --    179.3217               186.1592               189.3686
 Red. masses --     53.5067                48.6598                43.5482
 Frc consts  --      1.0137                 0.9935                 0.9201
 IR Inten    --      6.1748                 2.3048                 0.8303

                     43                     44                     45
                      A                      A                      A
 Frequencies --    192.5001               200.0157               203.8156
 Red. masses --     39.7151                37.7758                46.2601
 Frc consts  --      0.8671                 0.8904                 1.1322
 IR Inten    --      3.3461                 0.3877                 5.2314

                     46                     47                     48
                      A                      A                      A
 Frequencies --    210.4537               219.3300               224.0159
 Red. masses --     41.7452                42.5580                42.8671
 Frc consts  --      1.0894                 1.2062                 1.2675
 IR Inten    --      3.5194                 0.3719                 1.2445

                     49                     50                     51
                      A                      A                      A
 Frequencies --    228.2598               231.1258               240.7576
 Red. masses --     37.6262                36.8204                34.9423
 Frc consts  --      1.1550                 1.1589                 1.1933
 IR Inten    --      3.6521                 2.4429                 1.7041

                     52                     53                     54
                      A                      A                      A
 Frequencies --    243.8663               246.2203               247.0139
 Red. masses --     36.3927                37.2891                38.9981
 Frc consts  --      1.2752                 1.3319                 1.4020
 IR Inten    --      1.4582                 0.4741                 0.0366

                     55                     56                     57
                      A                      A                      A
 Frequencies --    254.8521               264.4069               274.7828
 Red. masses --     34.1698                35.1253                33.9314
 Frc consts  --      1.3076                 1.4468                 1.5095
 IR Inten    --      0.8825                 2.0362                11.0478

                     58                     59                     60
                      A                      A                      A
 Frequencies --    275.1073               282.8244               290.3289
 Red. masses --     36.1970                36.1662                35.9070
 Frc consts  --      1.6141                 1.7045                 1.7832
 IR Inten    --      1.0348                 1.6272                 3.0936

                     61                     62                     63
                      A                      A                      A
 Frequencies --    294.6688               300.1235               301.1493
 Red. masses --     38.2564                38.0683                34.8478
 Frc consts  --      1.9571                 2.0203                 1.8620
 IR Inten    --      3.9511                 0.5856                 2.8693

                     64                     65                     66
                      A                      A                      A
 Frequencies --    305.6190               308.7287               309.7043
 Red. masses --     37.0737                37.1412                36.8806
 Frc consts  --      2.0402                 2.0857                 2.0842
 IR Inten    --      5.4861                 2.0062                 5.3659

                     67                     68                     69
                      A                      A                      A
 Frequencies --    329.5080               333.5687               336.5307
 Red. masses --     36.0539                33.6162                37.6908
 Frc consts  --      2.3064                 2.2038                 2.5150
 IR Inten    --      1.0748                 1.2595                 5.1528

                     70                     71                     72
                      A                      A                      A
 Frequencies --    342.1320               349.0164               366.9226
 Red. masses --     34.8077                37.9803                40.3566
 Frc consts  --      2.4006                 2.7258                 3.2012
 IR Inten    --     10.5284                 1.0225                 1.3061

                     73                     74                     75
                      A                      A                      A
 Frequencies --    376.2560               386.9612               389.6573
 Red. masses --     37.2786                35.9375                34.8909
 Frc consts  --      3.1094                 3.1705                 3.1212
 IR Inten    --      2.6284                 0.7576                 5.7133

                     76                     77                     78
                      A                      A                      A
 Frequencies --    398.7564               404.7000               406.1207
 Red. masses --     36.4851                34.0099                23.1566
 Frc consts  --      3.4181                 3.2819                 2.2503
 IR Inten    --      0.4967                 5.4646                20.2635

                     79                     80                     81
                      A                      A                      A
 Frequencies --    407.7814               410.1865               412.9579
 Red. masses --     35.8707                36.1574                36.9234
 Frc consts  --      3.5144                 3.5843                 3.7099
 IR Inten    --      3.0817                 0.5445                 5.6055

                     82                     83                     84
                      A                      A                      A
 Frequencies --    430.2416               430.6346               433.2283
 Red. masses --     19.4322                21.1734                32.8483
 Frc consts  --      2.1193                 2.3134                 3.6324
 IR Inten    --     10.9373                 4.2625                 1.9669

                     85                     86                     87
                      A                      A                      A
 Frequencies --    435.4319               437.3609               442.3516
 Red. masses --     36.7030                37.2720                20.5302
 Frc consts  --      4.1001                 4.2006                 2.3669
 IR Inten    --      3.7627                 4.4379                 1.2009

                     88                     89                     90
                      A                      A                      A
 Frequencies --    449.7042               454.0496               455.0183
 Red. masses --     39.2098                36.2023                38.9629
 Frc consts  --      4.6720                 4.3974                 4.7529
 IR Inten    --     13.1653                 4.7053                 9.3993

                     91                     92                     93
                      A                      A                      A
 Frequencies --    462.1172               467.8509               469.7789
 Red. masses --     39.1565                39.0341                39.5415
 Frc consts  --      4.9267                 5.0339                 5.1415
 IR Inten    --      7.5131                 1.8889                20.9970

                     94                     95                     96
                      A                      A                      A
 Frequencies --    474.8860               528.4083               555.0725
 Red. masses --     39.5318                16.2907                37.3764
 Frc consts  --      5.2526                 2.6800                 6.7850
 IR Inten    --     11.8315                 9.2223               168.5758

                     97                     98                     99
                      A                      A                      A
 Frequencies --    562.2065               563.7403              1976.9280
 Red. masses --     39.9885                39.9431                13.3735
 Frc consts  --      7.4469                 7.4791                30.7949
 IR Inten    --    281.3948               106.1656              1380.9023

 - Thermochemistry -
 -------------------
 Temperature   298.150 Kelvin.  Pressure   1.00000 Atm.
 Atom     1 has atomic number 42 and mass  97.90550

 Molecular mass:  1808.34099 amu.
 Principal axes and moments of inertia in atomic units:
                           1         2         3
     Eigenvalues --  ******************************
           X           -0.12039   0.98576  -0.11739
           Y           -0.62285   0.01708   0.78215
           Z            0.77302   0.16728   0.61193
 This molecule is an asymmetric top.
 Rotational symmetry number  1.
 Warning -- assumption of classical behavior for rotation
           may cause significant error
 Rotational temperatures (Kelvin)      0.00158     0.00117     0.00073
 Rotational constants (GHZ):           0.03301     0.02430     0.01531
 Zero-point vibrational energy     158791.7 (Joules/Mol)
                                   37.95212 (Kcal/Mol)
 Warning -- explicit consideration of  98 degrees of freedom as
           vibrations may cause significant error
 Vibrational temperatures:     42.59    44.28    57.30    63.63    66.44
          (Kelvin)             77.84    83.25    93.55    95.15   101.07
                              110.43   113.69   121.97   126.34   129.31
                              134.30   140.42   145.48   155.71   160.12
                              161.61   164.77   168.31   170.48   177.89
                              182.56   197.36   201.46   208.55   209.03
                              215.21   218.50   221.56   227.64   229.30
                              232.59   240.21   248.62   251.50   258.00
                              267.84   272.46   276.96   287.78   293.25
                              302.80   315.57   322.31   328.41   332.54
                              346.40   350.87   354.26   355.40   366.68
                              380.42   395.35   395.82   406.92   417.72
                              423.96   431.81   433.29   439.72   444.19
                              445.60   474.09   479.93   484.19   492.25
                              502.16   527.92   541.35   556.75   560.63
                              573.72   582.27   584.32   586.71   590.17
                              594.15   619.02   619.59   623.32   626.49
                              629.26   636.45   647.02   653.28   654.67
                              664.88   673.13   675.91   683.26   760.26
                              798.63   808.89   811.10  2844.36

 Zero-point correction=                           0.060481 (Hartree/Particle)
 Thermal correction to Energy=                    0.114061
 Thermal correction to Enthalpy=                  0.115005
 Thermal correction to Gibbs Free Energy=        -0.029301
 Sum of electronic and zero-point Energies=          -9617.598523
 Sum of electronic and thermal Energies=             -9617.544943
 Sum of electronic and thermal Enthalpies=           -9617.543998
 Sum of electronic and thermal Free Energies=        -9617.688305

                     E (Thermal)             CV                S
                      KCal/Mol        Cal/Mol-Kelvin    Cal/Mol-Kelvin
 Total                   71.575            174.120            303.718
 Electronic               0.000              0.000              0.000
 Translational            0.889              2.981             48.347
 Rotational               0.889              2.981             41.389
 Vibrational             69.797            168.159            213.982
 Vibration     1          0.593              1.984              5.856
 Vibration     2          0.594              1.984              5.779
 Vibration     3          0.594              1.981              5.268
 Vibration     4          0.595              1.980              5.060
 Vibration     5          0.595              1.979              4.975
 Vibration     6          0.596              1.976              4.661
 Vibration     7          0.596              1.974              4.529
 Vibration     8          0.597              1.971              4.299
 Vibration     9          0.598              1.970              4.265
 Vibration    10          0.598              1.968              4.146
 Vibration    11          0.599              1.965              3.972
 Vibration    12          0.600              1.963              3.915
 Vibration    13          0.601              1.960              3.777
 Vibration    14          0.601              1.958              3.708
 Vibration    15          0.602              1.956              3.663
 Vibration    16          0.602              1.954              3.589
 Vibration    17          0.603              1.951              3.502
 Vibration    18          0.604              1.948              3.433
 Vibration    19          0.606              1.943              3.300
 Vibration    20          0.607              1.940              3.246
 Vibration    21          0.607              1.939              3.228
 Vibration    22          0.607              1.937              3.191
 Vibration    23          0.608              1.935              3.150
 Vibration    24          0.609              1.934              3.125
 Vibration    25          0.610              1.929              3.043
 Vibration    26          0.611              1.926              2.993
 Vibration    27          0.614              1.916              2.843
 Vibration    28          0.615              1.913              2.804
 Vibration    29          0.616              1.908              2.738
 Vibration    30          0.617              1.908              2.733
 Vibration    31          0.618              1.903              2.678
 Vibration    32          0.619              1.901              2.649
 Vibration    33          0.620              1.898              2.622
 Vibration    34          0.621              1.893              2.571
 Vibration    35          0.621              1.892              2.557
 Vibration    36          0.622              1.889              2.530
 Vibration    37          0.624              1.883              2.470
 Vibration    38          0.626              1.876              2.405
 Vibration    39          0.627              1.873              2.383
 Vibration    40          0.629              1.868              2.335
 Vibration    41          0.632              1.859              2.266
 Vibration    42          0.633              1.855              2.234
 Vibration    43          0.634              1.850              2.204
 Vibration    44          0.638              1.840              2.133
 Vibration    45          0.639              1.834              2.098
 Vibration    46          0.643              1.825              2.040
 Vibration    47          0.647              1.812              1.965
 Vibration    48          0.649              1.804              1.926
 Vibration    49          0.651              1.798              1.893
 Vibration    50          0.653              1.793              1.870
 Vibration    51          0.658              1.778              1.797
 Vibration    52          0.659              1.773              1.774
 Vibration    53          0.661              1.769              1.757
 Vibration    54          0.661              1.768              1.752
 Vibration    55          0.665              1.755              1.697
 Vibration    56          0.671              1.738              1.632
 Vibration    57          0.677              1.720              1.566
 Vibration    58          0.677              1.719              1.564
 Vibration    59          0.682              1.705              1.517
 Vibration    60          0.686              1.692              1.472
 Vibration    61          0.689              1.684              1.447
 Vibration    62          0.693              1.673              1.416
 Vibration    63          0.693              1.672              1.411
 Vibration    64          0.696              1.663              1.386
 Vibration    65          0.698              1.657              1.369
 Vibration    66          0.699              1.655              1.364
 Vibration    67          0.712              1.617              1.262
 Vibration    68          0.715              1.608              1.243
 Vibration    69          0.717              1.603              1.229
 Vibration    70          0.721              1.591              1.202
 Vibration    71          0.726              1.577              1.171
 Vibration    72          0.740              1.540              1.093
 Vibration    73          0.747              1.521              1.054
 Vibration    74          0.755              1.498              1.012
 Vibration    75          0.758              1.492              1.001
 Vibration    76          0.765              1.473              0.967
 Vibration    77          0.770              1.460              0.946
 Vibration    78          0.771              1.457              0.940
 Vibration    79          0.772              1.453              0.934
 Vibration    80          0.774              1.448              0.926
 Vibration    81          0.777              1.442              0.916
 Vibration    82          0.791              1.404              0.858
 Vibration    83          0.792              1.404              0.857
 Vibration    84          0.794              1.398              0.848
 Vibration    85          0.796              1.393              0.841
 Vibration    86          0.798              1.389              0.835
 Vibration    87          0.802              1.378              0.819
 Vibration    88          0.809              1.362              0.797
 Vibration    89          0.812              1.352              0.784
 Vibration    90          0.813              1.350              0.781
 Vibration    91          0.820              1.334              0.760
 Vibration    92          0.825              1.321              0.744
 Vibration    93          0.827              1.317              0.738
 Vibration    94          0.832              1.306              0.724
 Vibration    95          0.883              1.187              0.591
 Vibration    96          0.911              1.129              0.534
 Vibration    97          0.918              1.113              0.519
 Vibration    98          0.920              1.110              0.516

                           ! Non-Optimized Parameters !
 Normal termination of Gaussian 16 at Sat Dec 17 11:50:13 2022.
