 Gaussian 16, Revision C.01,
 Gaussian 16:  ES64L-G16RevC.01  3-Jul-2019

 ---------------------------------------
 # opt freq b3lyp/gen nosymm pseudo=read
 ---------------------------------------

 -------------------
 Title Card Required
 -------------------
 Symbolic Z-matrix:
 Charge =  0 Multiplicity = 1

 SCF Done:  E(RB3LYP) =  -9504.33817788     A.U. after   39 cycles
 SCF Done:  E(RB3LYP) =  -9504.33818029     A.U. after   15 cycles
 SCF Done:  E(RB3LYP) =  -9504.33818214     A.U. after   16 cycles
 SCF Done:  E(RB3LYP) =  -9504.33818267     A.U. after   15 cycles
 SCF Done:  E(RB3LYP) =  -9504.33818308     A.U. after   16 cycles
 Optimization completed.
    -- Stationary point found.
 Normal termination of Gaussian 16 at Mon Dec 19 08:58:50 2022.

 ------------------------------------------------------------------
 #N Geom=AllCheck Guess=TCheck SCRF=Check GenChk RB3LYP/ChkBas Freq
 ------------------------------------------------------------------

 Structure from the checkpoint file:  "/localscratch/chegho/Gau-219662.chk"
 -------------------
 Title Card Required
 -------------------
 Charge =  0 Multiplicity = 1

                          Input orientation:
 ---------------------------------------------------------------------
 Center     Atomic      Atomic             Coordinates (Angstroms)
 Number     Number       Type             X           Y           Z
 ---------------------------------------------------------------------
      1         42           0        0.174274    1.580916   12.541146
      2         16           0        1.165745    3.721090   12.616421
      3         16           0       -1.981392    2.098250   13.222550
      4         16           0       -0.296674    0.888253   10.300657
      5         16           0        2.103582   -0.041650   12.253027
      6         42           0       -2.066628    2.402701   10.833843
      7         16           0       -2.578401    1.864223    8.452348
      8         16           0       -1.267673    4.562915   10.809669
      9         42           0        0.801149    3.089587   10.291812
     10         16           0        0.279874    3.182751    7.758481
     11         16           0        2.762943    1.751048    9.641950
     12         42           0        2.924524    2.328191   11.937349
     13         42           0       -1.736676    4.202155    8.579041
     14         16           0        3.954594    2.280932   14.238622
     15         16           0        4.512643    4.140336   11.622436
     16         16           0       -3.948017    5.189329    8.486721
     17         16           0       -1.102331    6.548517    7.988796
     18         42           0       -4.428097    3.044523    9.071860
     19         16           0       -6.173479    2.303526    8.118587
     20         16           0       -4.468021    2.890283   11.311868
     21         42           0        2.490983    0.599578   14.432053
     22         16           0        3.259074   -0.959482   15.647328
     23         16           0        0.529014    1.353343   15.121033
     24         42           0        0.777934    5.535156    7.346529
     25         16           0        0.522187    5.094376    4.990794
     26         16           0        1.621743    5.380171    9.797893
     27         42           0        3.459336    4.042194    9.614886
     28         16           0        3.731231    3.387085    7.164218
     29         16           0        4.872163    6.090504    8.938352
     30         42           0        3.783541    5.599324    7.035418
     31         16           0        4.220295    5.982022    4.764482
     32         16           0        2.123207    7.555091    7.367619
     33         42           0        2.085086    6.691770    5.244778
 ---------------------------------------------------------------------

 SCF Done:  E(RB3LYP) =  -9504.33818308     A.U. after    3 cycles

 Alpha  occ. eigenvalues --  -88.94033 -88.92394 -88.91982 -88.91939 -88.91808
 Alpha  occ. eigenvalues --  -88.91656 -88.91426 -88.91231 -88.90767 -88.90497
 Alpha  occ. eigenvalues --  -88.90419 -88.90359 -88.90250 -88.89984 -88.89860
 Alpha  occ. eigenvalues --  -88.89595 -88.88772 -88.88724 -88.88542 -88.88479
 Alpha  occ. eigenvalues --  -88.88112 -88.87651  -8.01437  -7.99878  -7.99624
 Alpha  occ. eigenvalues --   -7.99403  -7.99153  -7.99054  -7.98859  -7.98751
 Alpha  occ. eigenvalues --   -7.98273  -7.98264  -7.98148  -7.98091  -7.97851
 Alpha  occ. eigenvalues --   -7.97677  -7.97465  -7.97296  -7.96461  -7.96291
 Alpha  occ. eigenvalues --   -7.96270  -7.96210  -7.95984  -7.95551  -5.97491
 Alpha  occ. eigenvalues --   -5.97401  -5.97327  -5.95909  -5.95882  -5.95740
 Alpha  occ. eigenvalues --   -5.95691  -5.95570  -5.95477  -5.95458  -5.95420
 Alpha  occ. eigenvalues --   -5.95244  -5.95153  -5.95144  -5.95132  -5.95099
 Alpha  occ. eigenvalues --   -5.95024  -5.94911  -5.94908  -5.94844  -5.94767
 Alpha  occ. eigenvalues --   -5.94741  -5.94734  -5.94637  -5.94322  -5.94261
 Alpha  occ. eigenvalues --   -5.94232  -5.94226  -5.94198  -5.94161  -5.94149
 Alpha  occ. eigenvalues --   -5.94134  -5.94104  -5.94103  -5.93998  -5.93964
 Alpha  occ. eigenvalues --   -5.93881  -5.93796  -5.93752  -5.93668  -5.93614
 Alpha  occ. eigenvalues --   -5.93545  -5.93518  -5.93385  -5.93372  -5.93336
 Alpha  occ. eigenvalues --   -5.93257  -5.93111  -5.92584  -5.92436  -5.92407
 Alpha  occ. eigenvalues --   -5.92406  -5.92320  -5.92244  -5.92222  -5.92192
 Alpha  occ. eigenvalues --   -5.92161  -5.92096  -5.92067  -5.91997  -5.91988
 Alpha  occ. eigenvalues --   -5.91908  -5.91872  -5.91537  -5.91490  -5.91435
 Alpha  occ. eigenvalues --   -2.57219  -2.56869  -2.56738  -2.56687  -2.56588
 Alpha  occ. eigenvalues --   -2.56007  -2.55849  -2.55707  -2.54867  -2.54461
 Alpha  occ. eigenvalues --   -2.54129  -1.60204  -1.60084  -1.59961  -1.59658
 Alpha  occ. eigenvalues --   -1.59600  -1.59578  -1.59555  -1.59304  -1.59254
 Alpha  occ. eigenvalues --   -1.59202  -1.59188  -1.58975  -1.58810  -1.58768
 Alpha  occ. eigenvalues --   -1.58495  -1.58411  -1.58337  -1.58250  -1.58189
 Alpha  occ. eigenvalues --   -1.58087  -1.57918  -1.57559  -1.57434  -1.57096
 Alpha  occ. eigenvalues --   -1.56970  -1.56843  -1.56749  -1.56550  -1.56370
 Alpha  occ. eigenvalues --   -1.56181  -1.56059  -1.55993  -1.55602  -0.77904
 Alpha  occ. eigenvalues --   -0.75957  -0.75776  -0.75504  -0.74390  -0.74195
 Alpha  occ. eigenvalues --   -0.73948  -0.73545  -0.73501  -0.73257  -0.72811
 Alpha  occ. eigenvalues --   -0.72497  -0.72422  -0.72067  -0.71788  -0.71428
 Alpha  occ. eigenvalues --   -0.71249  -0.70763  -0.70463  -0.69936  -0.69326
 Alpha  occ. eigenvalues --   -0.68861  -0.45247  -0.44939  -0.44463  -0.43785
 Alpha  occ. eigenvalues --   -0.43080  -0.42806  -0.42422  -0.42277  -0.42067
 Alpha  occ. eigenvalues --   -0.41766  -0.41351  -0.41216  -0.40789  -0.40622
 Alpha  occ. eigenvalues --   -0.40295  -0.40183  -0.39929  -0.39742  -0.39648
 Alpha  occ. eigenvalues --   -0.39156  -0.39108  -0.38715  -0.38490  -0.38423
 Alpha  occ. eigenvalues --   -0.38176  -0.38046  -0.37842  -0.37577  -0.37339
 Alpha  occ. eigenvalues --   -0.37226  -0.36818  -0.36578  -0.36460  -0.36391
 Alpha  occ. eigenvalues --   -0.36130  -0.35841  -0.35670  -0.35643  -0.35394
 Alpha  occ. eigenvalues --   -0.35287  -0.35213  -0.35065  -0.34677  -0.34581
 Alpha  occ. eigenvalues --   -0.34454  -0.33987  -0.33807  -0.33521  -0.33384
 Alpha  occ. eigenvalues --   -0.33162  -0.32764  -0.32527  -0.32234  -0.31902
 Alpha  occ. eigenvalues --   -0.31776  -0.31378  -0.31307  -0.31058  -0.30767
 Alpha  occ. eigenvalues --   -0.30187  -0.29998  -0.29681  -0.29378  -0.28755
 Alpha  occ. eigenvalues --   -0.28577  -0.28349  -0.28040  -0.27497  -0.27124
 Alpha  occ. eigenvalues --   -0.26760  -0.26057  -0.25896  -0.25458  -0.24891
 Alpha  occ. eigenvalues --   -0.24104  -0.23525  -0.23388
 Alpha virt. eigenvalues --   -0.18365  -0.17305  -0.17203  -0.16740  -0.16328
 Alpha virt. eigenvalues --   -0.15883  -0.15403  -0.14969  -0.14838  -0.14761
 Alpha virt. eigenvalues --   -0.14464  -0.14135  -0.13948  -0.13637  -0.13102

 Mulliken charges:
               1
     1  Mo  -0.226265
     2  S    0.407431
     3  S    0.050566
     4  S    0.198112
     5  S    0.076678
     6  Mo  -0.239585
     7  S    0.143902
     8  S    0.288839
     9  Mo  -0.839276
    10  S    0.137752
    11  S    0.208851
    12  Mo  -0.308416
    13  Mo  -0.237184
    14  S   -0.022108
    15  S    0.073690
    16  S    0.013227
    17  S    0.076335
    18  Mo   0.272374
    19  S   -0.214156
    20  S    0.001561
    21  Mo   0.283491
    22  S   -0.199591
    23  S   -0.032269
    24  Mo  -0.275765
    25  S    0.007372
    26  S    0.224812
    27  Mo  -0.173107
    28  S    0.042664
    29  S    0.011119
    30  Mo   0.092302
    31  S   -0.073898
    32  S    0.147356
    33  Mo   0.083184
 Sum of Mulliken charges =  -0.00000

 Dipole moment (field-independent basis, Debye):
    X=              1.1377    Y=              3.3032    Z=             -6.4561  Tot=              7.3407
 Quadrupole moment (field-independent basis, Debye-Ang):
   XX=           -557.5549   YY=           -506.1349   ZZ=           -662.6238
   XY=              9.1370   XZ=             -2.4671   YZ=             -4.4804

  Exact polarizability:    1132.184      63.442     765.261      58.824    -364.356    1088.703
 Approx polarizability:    3845.191     260.614    2650.374      95.808   -1020.105    3554.808

                      1                      2                      3
                      A                      A                      A
 Frequencies --     30.8314                38.2299                44.7641
 Red. masses --     41.9418                43.1861                41.2757
 Frc consts  --      0.0235                 0.0372                 0.0487
 IR Inten    --      0.1707                 0.6113                 0.6992

                      4                      5                      6
                      A                      A                      A
 Frequencies --     51.0222                53.1127                56.2787
 Red. masses --     37.3639                44.5658                48.9703
 Frc consts  --      0.0573                 0.0741                 0.0914
 IR Inten    --      1.5903                 0.4573                 1.4848

                      7                      8                      9
                      A                      A                      A
 Frequencies --     61.2921                65.6591                69.0172
 Red. masses --     41.3721                44.4374                43.2399
 Frc consts  --      0.0916                 0.1129                 0.1214
 IR Inten    --      0.9687                 1.5471                 1.9058

                     10                     11                     12
                      A                      A                      A
 Frequencies --     76.3548                79.1673                82.7543
 Red. masses --     41.4608                43.0579                42.1753
 Frc consts  --      0.1424                 0.1590                 0.1702
 IR Inten    --      1.2327                 0.4369                 0.2866

                     13                     14                     15
                      A                      A                      A
 Frequencies --     89.0301                89.9268                94.6520
 Red. masses --     39.2329                42.5924                44.0767
 Frc consts  --      0.1832                 0.2029                 0.2327
 IR Inten    --      1.2588                 1.9064                 0.4347

                     16                     17                     18
                      A                      A                      A
 Frequencies --     98.7235               103.8221               108.8038
 Red. masses --     41.1839                41.1280                40.9681
 Frc consts  --      0.2365                 0.2612                 0.2857
 IR Inten    --      0.3005                 2.0894                 0.8751

                     19                     20                     21
                      A                      A                      A
 Frequencies --    112.6810               119.2370               121.6268
 Red. masses --     48.2585                46.6511                53.0344
 Frc consts  --      0.3610                 0.3908                 0.4622
 IR Inten    --      0.9189                 3.8182                 0.3253

                     22                     23                     24
                      A                      A                      A
 Frequencies --    123.9458               126.0797               127.3032
 Red. masses --     53.6846                50.8772                49.8827
 Frc consts  --      0.4859                 0.4765                 0.4763
 IR Inten    --      3.8897                 0.1934                 1.4586

                     25                     26                     27
                      A                      A                      A
 Frequencies --    133.8284               138.9942               142.4036
 Red. masses --     51.1724                41.2414                46.6846
 Frc consts  --      0.5400                 0.4694                 0.5578
 IR Inten    --      0.5890                 1.8034                 1.1943

                     28                     29                     30
                      A                      A                      A
 Frequencies --    146.4054               152.3600               153.8195
 Red. masses --     41.2475                43.1349                46.6574
 Frc consts  --      0.5209                 0.5900                 0.6504
 IR Inten    --      0.8163                 2.1838                 0.4611

                     31                     32                     33
                      A                      A                      A
 Frequencies --    158.2983               160.6731               160.8055
 Red. masses --     45.6874                42.3161                42.8950
 Frc consts  --      0.6745                 0.6436                 0.6535
 IR Inten    --      6.8423                 0.2881                 0.3391

                     34                     35                     36
                      A                      A                      A
 Frequencies --    164.0554               169.0926               174.0155
 Red. masses --     45.3762                42.7598                43.6248
 Frc consts  --      0.7195                 0.7203                 0.7783
 IR Inten    --      3.1521                 1.8266                 2.4288

                     37                     38                     39
                      A                      A                      A
 Frequencies --    177.5904               179.8323               187.9428
 Red. masses --     47.3366                50.2026                46.8000
 Frc consts  --      0.8796                 0.9566                 0.9740
 IR Inten    --      3.7692                 2.4530                 0.7124

                     40                     41                     42
                      A                      A                      A
 Frequencies --    193.2379               201.9542               207.7011
 Red. masses --     44.0982                38.4495                49.4559
 Frc consts  --      0.9702                 0.9239                 1.2570
 IR Inten    --      0.4262                 0.3247                 8.5238

                     43                     44                     45
                      A                      A                      A
 Frequencies --    213.8039               222.0737               225.1628
 Red. masses --     46.9218                47.5567                41.1796
 Frc consts  --      1.2637                 1.3818                 1.2301
 IR Inten    --     13.2637                 5.9499                 6.7300

                     46                     47                     48
                      A                      A                      A
 Frequencies --    226.5811               233.5776               238.5403
 Red. masses --     43.0410                41.5873                35.4916
 Frc consts  --      1.3019                 1.3368                 1.1899
 IR Inten    --      1.3222                 1.4568                 0.9700

                     49                     50                     51
                      A                      A                      A
 Frequencies --    241.2287               246.7907               248.7420
 Red. masses --     34.8035                38.4279                39.1514
 Frc consts  --      1.1933                 1.3790                 1.4272
 IR Inten    --      0.5701                 7.4847                 1.6286

                     52                     53                     54
                      A                      A                      A
 Frequencies --    258.8106               259.2828               267.6211
 Red. masses --     36.7588                38.4221                39.2397
 Frc consts  --      1.4507                 1.5219                 1.6558
 IR Inten    --      0.8983                 0.1367                12.9088

                     55                     56                     57
                      A                      A                      A
 Frequencies --    271.1666               276.3444               283.1867
 Red. masses --     35.3641                36.2261                36.5377
 Frc consts  --      1.5321                 1.6299                 1.7264
 IR Inten    --      1.3590                 3.0007                 2.2608

                     58                     59                     60
                      A                      A                      A
 Frequencies --    284.6455               287.2449               291.5752
 Red. masses --     38.1495                40.4131                38.5058
 Frc consts  --      1.8212                 1.9646                 1.9288
 IR Inten    --      8.3909                 7.3595                 6.7146

                     61                     62                     63
                      A                      A                      A
 Frequencies --    298.0891               305.5557               306.4762
 Red. masses --     36.0504                36.5384                37.0891
 Frc consts  --      1.8873                 2.0099                 2.0525
 IR Inten    --      0.9929                 7.4801                 3.7449

                     64                     65                     66
                      A                      A                      A
 Frequencies --    312.8990               322.9829               331.8703
 Red. masses --     37.8104                40.1159                36.3893
 Frc consts  --      2.1811                 2.4656                 2.3614
 IR Inten    --      1.0258                 0.4707                 0.1949

                     67                     68                     69
                      A                      A                      A
 Frequencies --    335.7848               344.6915               352.3930
 Red. masses --     36.3873                36.2143                40.1157
 Frc consts  --      2.4173                 2.5351                 2.9351
 IR Inten    --      0.6485                 1.7962                 1.0755

                     70                     71                     72
                      A                      A                      A
 Frequencies --    364.2496               370.0887               377.5946
 Red. masses --     40.6460                36.4958                38.7433
 Frc consts  --      3.1774                 2.9451                 3.2546
 IR Inten    --      1.5579                 0.6559                 1.4932

                     73                     74                     75
                      A                      A                      A
 Frequencies --    402.5297               407.2087               411.9961
 Red. masses --     36.2330                36.6464                37.0927
 Frc consts  --      3.4590                 3.5803                 3.7096
 IR Inten    --      5.5613                 9.1859                 3.1614

                     76                     77                     78
                      A                      A                      A
 Frequencies --    416.9774               419.2681               425.8047
 Red. masses --     35.1704                34.8447                38.5113
 Frc consts  --      3.6029                 3.6089                 4.1139
 IR Inten    --     16.0710                 4.5470                 4.9180

                     79                     80                     81
                      A                      A                      A
 Frequencies --    429.2030               430.5567               433.2681
 Red. masses --     35.2577                34.7509                38.0070
 Frc consts  --      3.8268                 3.7956                 4.2037
 IR Inten    --      7.5357                 1.9696                 2.6022

                     82                     83                     84
                      A                      A                      A
 Frequencies --    437.0170               439.9628               448.8313
 Red. masses --     37.9599                37.0063                37.8866
 Frc consts  --      4.2714                 4.2204                 4.4968
 IR Inten    --      1.7863                22.3805                51.1543

                     85                     86                     87
                      A                      A                      A
 Frequencies --    452.7100               453.7453               457.3660
 Red. masses --     39.0073                39.8749                39.3598
 Frc consts  --      4.7102                 4.8370                 4.8510
 IR Inten    --      4.1763                16.6760                 4.9508

                     88                     89                     90
                      A                      A                      A
 Frequencies --    458.9930               467.2091               470.5480
 Red. masses --     39.2509                39.4679                39.4591
 Frc consts  --      4.8721                 5.0759                 5.1476
 IR Inten    --      6.1756                23.2495                 8.4243

                     91                     92                     93
                      A                      A                      A
 Frequencies --    475.8942               561.6578               563.1649
 Red. masses --     39.6568                39.9935                40.0102
 Frc consts  --      5.2916                 7.4333                 7.4764
 IR Inten    --     16.5790               280.1841               125.5532

 - Thermochemistry -
 -------------------
 Temperature   298.150 Kelvin.  Pressure   1.00000 Atm.
 Atom     1 has atomic number 42 and mass  97.90550

 Molecular mass:  1780.34608 amu.
 Principal axes and moments of inertia in atomic units:
                           1         2         3
     Eigenvalues --  ******************************
           X           -0.07036   0.99055  -0.11770
           Y           -0.55819   0.05869   0.82764
           Z            0.82673   0.12393   0.54879
 This molecule is an asymmetric top.
 Rotational symmetry number  1.
 Warning -- assumption of classical behavior for rotation
           may cause significant error
 Rotational temperatures (Kelvin)      0.00166     0.00123     0.00077
 Rotational constants (GHZ):           0.03451     0.02572     0.01611
 Zero-point vibrational energy     138110.6 (Joules/Mol)
                                   33.00923 (Kcal/Mol)
 Warning -- explicit consideration of  93 degrees of freedom as
           vibrations may cause significant error
 Vibrational temperatures:     44.36    55.00    64.41    73.41    76.42
          (Kelvin)             80.97    88.19    94.47    99.30   109.86
                              113.90   119.06   128.09   129.38   136.18
                              142.04   149.38   156.54   162.12   171.56
                              174.99   178.33   181.40   183.16   192.55
                              199.98   204.89   210.64   219.21   221.31
                              227.76   231.17   231.36   236.04   243.29
                              250.37   255.51   258.74   270.41   278.03
                              290.57   298.84   307.62   319.51   323.96
                              326.00   336.07   343.21   347.07   355.08
                              357.88   372.37   373.05   385.05   390.15
                              397.60   407.44   409.54   413.28   419.51
                              428.88   439.63   440.95   450.19   464.70
                              477.49   483.12   495.93   507.01   524.07
                              532.48   543.27   579.15   585.88   592.77
                              599.94   603.23   612.64   617.53   619.48
                              623.38   628.77   633.01   645.77   651.35
                              652.84   658.05   660.39   672.21   677.01
                              684.71   808.10   810.27

 Zero-point correction=                           0.052604 (Hartree/Particle)
 Thermal correction to Energy=                    0.103691
 Thermal correction to Enthalpy=                  0.104635
 Thermal correction to Gibbs Free Energy=        -0.033707
 Sum of electronic and zero-point Energies=          -9504.285580
 Sum of electronic and thermal Energies=             -9504.234492
 Sum of electronic and thermal Enthalpies=           -9504.233548
 Sum of electronic and thermal Free Energies=        -9504.371890

                     E (Thermal)             CV                S
                      KCal/Mol        Cal/Mol-Kelvin    Cal/Mol-Kelvin
 Total                   65.067            166.171            291.166
 Electronic               0.000              0.000              0.000
 Translational            0.889              2.981             48.301
 Rotational               0.889              2.981             41.238
 Vibrational             63.290            160.209            201.627
 Vibration     1          0.594              1.984              5.775
 Vibration     2          0.594              1.982              5.349
 Vibration     3          0.595              1.979              5.036
 Vibration     4          0.595              1.977              4.777
 Vibration     5          0.596              1.976              4.698
 Vibration     6          0.596              1.975              4.584
 Vibration     7          0.597              1.973              4.415
 Vibration     8          0.597              1.971              4.279
 Vibration     9          0.598              1.969              4.181
 Vibration    10          0.599              1.965              3.982
 Vibration    11          0.600              1.963              3.911
 Vibration    12          0.600              1.961              3.824
 Vibration    13          0.602              1.957              3.681
 Vibration    14          0.602              1.956              3.662
 Vibration    15          0.603              1.953              3.562
 Vibration    16          0.604              1.950              3.479
 Vibration    17          0.605              1.946              3.381
 Vibration    18          0.606              1.942              3.290
 Vibration    19          0.607              1.939              3.222
 Vibration    20          0.609              1.933              3.113
 Vibration    21          0.609              1.931              3.074
 Vibration    22          0.610              1.929              3.038
 Vibration    23          0.611              1.927              3.005
 Vibration    24          0.611              1.926              2.986
 Vibration    25          0.613              1.920              2.890
 Vibration    26          0.615              1.914              2.818
 Vibration    27          0.616              1.911              2.771
 Vibration    28          0.617              1.907              2.718
 Vibration    29          0.619              1.900              2.643
 Vibration    30          0.619              1.898              2.624
 Vibration    31          0.621              1.893              2.570
 Vibration    32          0.622              1.891              2.542
 Vibration    33          0.622              1.890              2.540
 Vibration    34          0.623              1.887              2.503
 Vibration    35          0.625              1.881              2.446
 Vibration    36          0.627              1.874              2.392
 Vibration    37          0.628              1.870              2.354
 Vibration    38          0.629              1.867              2.330
 Vibration    39          0.633              1.856              2.248
 Vibration    40          0.635              1.849              2.197
 Vibration    41          0.639              1.837              2.115
 Vibration    42          0.641              1.829              2.064
 Vibration    43          0.644              1.820              2.011
 Vibration    44          0.648              1.807              1.942
 Vibration    45          0.650              1.803              1.917
 Vibration    46          0.650              1.801              1.906
 Vibration    47          0.654              1.790              1.851
 Vibration    48          0.657              1.782              1.814
 Vibration    49          0.658              1.777              1.794
 Vibration    50          0.661              1.768              1.753
 Vibration    51          0.662              1.765              1.739
 Vibration    52          0.668              1.748              1.670
 Vibration    53          0.668              1.747              1.667
 Vibration    54          0.673              1.733              1.612
 Vibration    55          0.675              1.726              1.589
 Vibration    56          0.678              1.717              1.556
 Vibration    57          0.682              1.705              1.514
 Vibration    58          0.683              1.702              1.506
 Vibration    59          0.684              1.697              1.490
 Vibration    60          0.687              1.689              1.465
 Vibration    61          0.691              1.677              1.428
 Vibration    62          0.696              1.663              1.386
 Vibration    63          0.697              1.661              1.381
 Vibration    64          0.701              1.649              1.347
 Vibration    65          0.708              1.629              1.295
 Vibration    66          0.714              1.612              1.251
 Vibration    67          0.717              1.604              1.232
 Vibration    68          0.723              1.586              1.190
 Vibration    69          0.729              1.570              1.155
 Vibration    70          0.738              1.546              1.104
 Vibration    71          0.742              1.534              1.079
 Vibration    72          0.748              1.518              1.049
 Vibration    73          0.768              1.465              0.953
 Vibration    74          0.772              1.455              0.937
 Vibration    75          0.776              1.444              0.920
 Vibration    76          0.780              1.433              0.902
 Vibration    77          0.782              1.428              0.894
 Vibration    78          0.788              1.414              0.872
 Vibration    79          0.791              1.407              0.861
 Vibration    80          0.792              1.404              0.857
 Vibration    81          0.794              1.398              0.848
 Vibration    82          0.797              1.390              0.836
 Vibration    83          0.800              1.383              0.827
 Vibration    84          0.808              1.363              0.799
 Vibration    85          0.811              1.355              0.788
 Vibration    86          0.812              1.353              0.785
 Vibration    87          0.815              1.345              0.774
 Vibration    88          0.817              1.341              0.769
 Vibration    89          0.824              1.323              0.745
 Vibration    90          0.828              1.315              0.736
 Vibration    91          0.833              1.304              0.721
 Vibration    92          0.917              1.114              0.521
 Vibration    93          0.919              1.111              0.518

                           ! Non-Optimized Parameters !
 Normal termination of Gaussian 16 at Mon Dec 19 09:18:04 2022.
