 Gaussian 16, Revision C.01,
 Gaussian 16:  ES64L-G16RevC.01  3-Jul-2019

 ---------------------------------------
 # opt freq b3lyp/gen nosymm pseudo=read
 ---------------------------------------

 -------------------
 Title Card Required
 -------------------
 Symbolic Z-matrix:
 Charge =  0 Multiplicity = 1

 SCF Done:  E(RB3LYP) =  -9903.73468419     A.U. after   43 cycles
 SCF Done:  E(RB3LYP) =  -9903.74489386     A.U. after   27 cycles
 SCF Done:  E(RB3LYP) =  -9903.75245469     A.U. after   27 cycles
 SCF Done:  E(RB3LYP) =  -9903.75395690     A.U. after   23 cycles
 SCF Done:  E(RB3LYP) =  -9903.75537625     A.U. after   24 cycles
 SCF Done:  E(RB3LYP) =  -9903.75605704     A.U. after   23 cycles
 SCF Done:  E(RB3LYP) =  -9903.75670144     A.U. after   23 cycles
 SCF Done:  E(RB3LYP) =  -9903.75706440     A.U. after   22 cycles
 SCF Done:  E(RB3LYP) =  -9903.75746524     A.U. after   21 cycles
 SCF Done:  E(RB3LYP) =  -9903.75797265     A.U. after   23 cycles
 SCF Done:  E(RB3LYP) =  -9903.75801723     A.U. after   21 cycles
 SCF Done:  E(RB3LYP) =  -9903.75807885     A.U. after   20 cycles
 SCF Done:  E(RB3LYP) =  -9903.75810238     A.U. after   20 cycles
 SCF Done:  E(RB3LYP) =  -9903.75812115     A.U. after   18 cycles
 SCF Done:  E(RB3LYP) =  -9903.75812727     A.U. after   19 cycles
 SCF Done:  E(RB3LYP) =  -9903.75813244     A.U. after   16 cycles
 SCF Done:  E(RB3LYP) =  -9903.75813575     A.U. after   17 cycles
 SCF Done:  E(RB3LYP) =  -9903.75813620     A.U. after   15 cycles
 SCF Done:  E(RB3LYP) =  -9903.75813680     A.U. after   16 cycles
 Optimization completed.
    -- Stationary point found.
 Normal termination of Gaussian 16 at Mon Dec 19 09:39:04 2022.

 ------------------------------------------------------------------
 #N Geom=AllCheck Guess=TCheck SCRF=Check GenChk RB3LYP/ChkBas Freq
 ------------------------------------------------------------------

 Structure from the checkpoint file:  "/localscratch/chegho/Gau-6852.chk"
 -------------------
 Title Card Required
 -------------------
 Charge =  0 Multiplicity = 1

                          Input orientation:
 ---------------------------------------------------------------------
 Center     Atomic      Atomic             Coordinates (Angstroms)
 Number     Number       Type             X           Y           Z
 ---------------------------------------------------------------------
      1         42           0        0.207261    1.606205   12.255406
      2         16           0        1.211146    3.736973   12.398101
      3         16           0       -1.944732    2.111790   12.956278
      4         16           0       -0.271572    0.988594    9.995255
      5         16           0        2.125294   -0.016573   11.914398
      6         42           0       -2.032497    2.497044   10.577052
      7         16           0       -2.545165    2.039646    8.179825
      8         16           0       -1.218264    4.651936   10.620928
      9         42           0        0.838863    3.182491   10.054197
     10         16           0        0.319596    3.361930    7.525647
     11         16           0        2.793575    1.854311    9.363047
     12         42           0        2.962180    2.356451   11.676850
     13         42           0       -1.691353    4.362368    8.381788
     14         16           0        3.995491    2.231088   13.972452
     15         16           0        4.565278    4.167124   11.417059
     16         16           0       -3.896507    5.370730    8.322648
     17         16           0       -1.047275    6.728016    7.850899
     18         42           0       -4.387640    3.211599    8.840071
     19         16           0       -6.135921    2.509112    7.859458
     20         16           0       -4.429148    2.983745   11.074216
     21         42           0        2.521629    0.552942   14.111854
     22         16           0        3.283542   -1.052247   15.271761
     23         16           0        0.565017    1.293308   14.828529
     24         42           0        0.836701    5.733739    7.191247
     25         16           0        0.602623    5.334318    4.842520
     26         16           0        1.675821    5.482658    9.635036
     27         42           0        3.503158    4.139795    9.413570
     28         16           0        3.762821    3.563458    6.939950
     29         16           0        4.918681    6.207303    8.799474
     30         42           0        3.845155    5.777143    6.869432
     31         16           0        4.359369    6.229142    4.654288
     32         16           0        2.189438    7.727962    7.238697
     33         42           0        2.170779    6.947740    5.082598
     34         16           0        2.123416    7.621318    2.530267
     35          1           0        1.263537    8.662101    2.495728
     36          1           0        3.219687    8.399720    2.417255
 ---------------------------------------------------------------------

 SCF Done:  E(RB3LYP) =  -9903.75813680     A.U. after    3 cycles

 Alpha  occ. eigenvalues --  -88.97058 -88.93318 -88.91697 -88.91268 -88.91220
 Alpha  occ. eigenvalues --  -88.91111 -88.90961 -88.90720 -88.90587 -88.89925
 Alpha  occ. eigenvalues --  -88.89895 -88.89668 -88.89659 -88.89457 -88.89277
 Alpha  occ. eigenvalues --  -88.89176 -88.88915 -88.88023 -88.88020 -88.87914
 Alpha  occ. eigenvalues --  -88.87847 -88.87409 -88.87012  -8.04716  -8.00724
 Alpha  occ. eigenvalues --   -7.99181  -7.98888  -7.98688  -7.98457  -7.98359
 Alpha  occ. eigenvalues --   -7.98153  -7.98106  -7.97610  -7.97423  -7.97401
 Alpha  occ. eigenvalues --   -7.97291  -7.97061  -7.96971  -7.96784  -7.96618
 Alpha  occ. eigenvalues --   -7.95703  -7.95664  -7.95578  -7.95566  -7.95281
 Alpha  occ. eigenvalues --   -7.94912  -6.01029  -6.00740  -6.00251  -5.96778
 Alpha  occ. eigenvalues --   -5.96687  -5.96615  -5.95211  -5.95186  -5.95045
 Alpha  occ. eigenvalues --   -5.94964  -5.94839  -5.94745  -5.94734  -5.94704
 Alpha  occ. eigenvalues --   -5.94526  -5.94457  -5.94447  -5.94435  -5.94404
 Alpha  occ. eigenvalues --   -5.94330  -5.94218  -5.94204  -5.94137  -5.94124
 Alpha  occ. eigenvalues --   -5.94095  -5.94030  -5.93993  -5.93646  -5.93601
 Alpha  occ. eigenvalues --   -5.93443  -5.93436  -5.93429  -5.93403  -5.93373
 Alpha  occ. eigenvalues --   -5.93355  -5.93330  -5.93300  -5.93201  -5.93176
 Alpha  occ. eigenvalues --   -5.93133  -5.93046  -5.93007  -5.92909  -5.92877
 Alpha  occ. eigenvalues --   -5.92863  -5.92812  -5.92703  -5.92693  -5.92655
 Alpha  occ. eigenvalues --   -5.92577  -5.92433  -5.91828  -5.91779  -5.91704
 Alpha  occ. eigenvalues --   -5.91688  -5.91675  -5.91617  -5.91529  -5.91489
 Alpha  occ. eigenvalues --   -5.91469  -5.91440  -5.91391  -5.91365  -5.91286
 Alpha  occ. eigenvalues --   -5.91206  -5.91169  -5.90899  -5.90852  -5.90795
 Alpha  occ. eigenvalues --   -2.56525  -2.56242  -2.56057  -2.55771  -2.55614
 Alpha  occ. eigenvalues --   -2.55152  -2.55125  -2.54983  -2.54168  -2.53750
 Alpha  occ. eigenvalues --   -2.53417  -1.59370  -1.59275  -1.58993  -1.58965
 Alpha  occ. eigenvalues --   -1.58913  -1.58899  -1.58681  -1.58624  -1.58575
 Alpha  occ. eigenvalues --   -1.58501  -1.58491  -1.58180  -1.58128  -1.57852
 Alpha  occ. eigenvalues --   -1.57766  -1.57690  -1.57540  -1.57466  -1.57379
 Alpha  occ. eigenvalues --   -1.57256  -1.56992  -1.56755  -1.56643  -1.56387
 Alpha  occ. eigenvalues --   -1.56261  -1.56062  -1.56036  -1.55830  -1.55666
 Alpha  occ. eigenvalues --   -1.55471  -1.55347  -1.55288  -1.54893  -0.84131
 Alpha  occ. eigenvalues --   -0.77186  -0.75224  -0.75063  -0.74811  -0.73691
 Alpha  occ. eigenvalues --   -0.73507  -0.73247  -0.72835  -0.72670  -0.72528
 Alpha  occ. eigenvalues --   -0.72103  -0.71755  -0.71657  -0.71345  -0.71112
 Alpha  occ. eigenvalues --   -0.70718  -0.70583  -0.70059  -0.69740  -0.69279
 Alpha  occ. eigenvalues --   -0.68650  -0.68239  -0.53676  -0.47177  -0.44509
 Alpha  occ. eigenvalues --   -0.44211  -0.43732  -0.43069  -0.42236  -0.42117
 Alpha  occ. eigenvalues --   -0.41700  -0.41564  -0.41297  -0.41155  -0.40672
 Alpha  occ. eigenvalues --   -0.40520  -0.40127  -0.39843  -0.39620  -0.39485
 Alpha  occ. eigenvalues --   -0.39162  -0.39029  -0.38873  -0.38662  -0.38417
 Alpha  occ. eigenvalues --   -0.38022  -0.37946  -0.37735  -0.37518  -0.37407
 Alpha  occ. eigenvalues --   -0.37256  -0.37084  -0.36867  -0.36623  -0.36178
 Alpha  occ. eigenvalues --   -0.36019  -0.35858  -0.35712  -0.35595  -0.35403
 Alpha  occ. eigenvalues --   -0.35167  -0.34979  -0.34856  -0.34739  -0.34620
 Alpha  occ. eigenvalues --   -0.34475  -0.34360  -0.33956  -0.33854  -0.33747
 Alpha  occ. eigenvalues --   -0.33299  -0.33101  -0.32816  -0.32699  -0.32459
 Alpha  occ. eigenvalues --   -0.32065  -0.31832  -0.31505  -0.31119  -0.31034
 Alpha  occ. eigenvalues --   -0.30705  -0.30600  -0.30340  -0.30093  -0.29513
 Alpha  occ. eigenvalues --   -0.29188  -0.28908  -0.28641  -0.28104  -0.27933
 Alpha  occ. eigenvalues --   -0.27624  -0.27232  -0.26748  -0.26388  -0.25646
 Alpha  occ. eigenvalues --   -0.25387  -0.25178  -0.24735  -0.24176  -0.23426
 Alpha  occ. eigenvalues --   -0.22722  -0.22689
 Alpha virt. eigenvalues --   -0.17643  -0.16587  -0.16367  -0.16033  -0.15349
 Alpha virt. eigenvalues --   -0.14990  -0.14629  -0.14200  -0.14079  -0.13851
 Alpha virt. eigenvalues --   -0.13479  -0.13299  -0.13015  -0.12442  -0.12378

 Mulliken charges:
               1
     1  Mo  -0.224244
     2  S    0.402994
     3  S    0.045080
     4  S    0.195221
     5  S    0.074136
     6  Mo  -0.238902
     7  S    0.141891
     8  S    0.285000
     9  Mo  -0.836732
    10  S    0.138719
    11  S    0.205001
    12  Mo  -0.307093
    13  Mo  -0.228685
    14  S   -0.026499
    15  S    0.067579
    16  S    0.005548
    17  S    0.059837
    18  Mo   0.267736
    19  S   -0.224008
    20  S   -0.003916
    21  Mo   0.280889
    22  S   -0.206662
    23  S   -0.036457
    24  Mo  -0.297730
    25  S    0.025624
    26  S    0.220953
    27  Mo  -0.173332
    28  S    0.035234
    29  S    0.001214
    30  Mo   0.121616
    31  S   -0.077532
    32  S    0.134235
    33  Mo  -0.140385
    34  S    0.031405
    35  H    0.136356
    36  H    0.145908
 Sum of Mulliken charges =  -0.00000

 Dipole moment (field-independent basis, Debye):
    X=              1.9775    Y=              7.1775    Z=            -11.1648  Tot=             13.4194
 Quadrupole moment (field-independent basis, Debye-Ang):
   XX=           -576.7154   YY=           -471.9479   ZZ=           -729.9201
   XY=             20.2919   XZ=             -6.1475   YZ=            -14.9382

  Exact polarizability:    1144.017      64.618     820.126      48.394    -413.910    1146.040
 Approx polarizability:    3847.966     235.898    2721.512     118.208   -1041.194    3514.572

                      1                      2                      3
                      A                      A                      A
 Frequencies --     27.3057                32.0996                39.8537
 Red. masses --     18.2352                18.7773                29.5271
 Frc consts  --      0.0080                 0.0114                 0.0276
 IR Inten    --      1.1289                 0.8231                 2.2103

                      4                      5                      6
                      A                      A                      A
 Frequencies --     45.9366                47.3087                49.7373
 Red. masses --     30.3016                26.4091                26.1234
 Frc consts  --      0.0377                 0.0348                 0.0381
 IR Inten    --      0.0579                 0.6182                 2.1889

                      7                      8                      9
                      A                      A                      A
 Frequencies --     53.8695                60.1521                64.3374
 Red. masses --     32.3696                38.7027                42.1581
 Frc consts  --      0.0553                 0.0825                 0.1028
 IR Inten    --      0.4627                 1.1824                 0.8311

                     10                     11                     12
                      A                      A                      A
 Frequencies --     70.3441                77.8830                79.1973
 Red. masses --     35.3838                25.1445                39.7760
 Frc consts  --      0.1032                 0.0899                 0.1470
 IR Inten    --      1.0112                 0.6026                 0.5709

                     13                     14                     15
                      A                      A                      A
 Frequencies --     80.1541                88.1893                90.2588
 Red. masses --     13.1960                30.9772                29.7927
 Frc consts  --      0.0500                 0.1419                 0.1430
 IR Inten    --      1.7854                 0.3815                 2.9762

                     16                     17                     18
                      A                      A                      A
 Frequencies --     90.9661                94.6235               100.2636
 Red. masses --     20.5116                26.9506                29.4716
 Frc consts  --      0.1000                 0.1422                 0.1746
 IR Inten    --      0.4290                 0.6417                 0.7312

                     19                     20                     21
                      A                      A                      A
 Frequencies --    103.3529               105.5597               110.5618
 Red. masses --      3.7908                11.0435                 3.0605
 Frc consts  --      0.0239                 0.0725                 0.0220
 IR Inten    --      2.4311                 2.4334                 6.4565

                     22                     23                     24
                      A                      A                      A
 Frequencies --    113.9197               117.7761               121.4853
 Red. masses --     28.4513                 5.5210                14.4357
 Frc consts  --      0.2175                 0.0451                 0.1255
 IR Inten    --      3.9661                 4.6937                 2.0047

                     25                     26                     27
                      A                      A                      A
 Frequencies --    124.9211               125.7656               128.5280
 Red. masses --     36.2039                42.4819                47.6574
 Frc consts  --      0.3329                 0.3959                 0.4638
 IR Inten    --      2.1736                 0.7331                 0.3108

                     28                     29                     30
                      A                      A                      A
 Frequencies --    133.7776               138.5488               142.5691
 Red. masses --     50.2149                35.2448                43.8564
 Frc consts  --      0.5295                 0.3986                 0.5252
 IR Inten    --      0.6101                 1.2505                 1.0357

                     31                     32                     33
                      A                      A                      A
 Frequencies --    146.3712               152.7458               154.9569
 Red. masses --     39.9820                41.0233                44.6605
 Frc consts  --      0.5047                 0.5639                 0.6318
 IR Inten    --      0.6594                 2.2989                 0.3679

                     34                     35                     36
                      A                      A                      A
 Frequencies --    158.4258               160.0601               160.7373
 Red. masses --     36.7037                37.0698                45.6542
 Frc consts  --      0.5428                 0.5595                 0.6950
 IR Inten    --      5.9016                 0.9640                 0.1613

                     37                     38                     39
                      A                      A                      A
 Frequencies --    162.4194               168.8923               172.7892
 Red. masses --     37.1882                35.3760                42.3920
 Frc consts  --      0.5780                 0.5945                 0.7457
 IR Inten    --      3.3020                 0.5566                 1.5966

                     40                     41                     42
                      A                      A                      A
 Frequencies --    177.6040               180.3856               183.3970
 Red. masses --     46.6426                44.5767                26.1486
 Frc consts  --      0.8668                 0.8546                 0.5182
 IR Inten    --      4.5493                 1.8639                 1.7328

                     43                     44                     45
                      A                      A                      A
 Frequencies --    188.7011               195.0065               202.2751
 Red. masses --     46.2659                41.7135                37.7448
 Frc consts  --      0.9706                 0.9346                 0.9099
 IR Inten    --      0.7767                 1.2469                 0.4074

                     46                     47                     48
                      A                      A                      A
 Frequencies --    210.5897               218.9648               222.2361
 Red. masses --     50.1280                41.5522                42.1688
 Frc consts  --      1.3098                 1.1738                 1.2271
 IR Inten    --      4.1717                11.3076                 9.4083

                     49                     50                     51
                      A                      A                      A
 Frequencies --    226.9198               229.7729               235.0254
 Red. masses --     43.9479                37.7325                39.6308
 Frc consts  --      1.3333                 1.1737                 1.2898
 IR Inten    --      8.0810                 1.4863                 0.1556

                     52                     53                     54
                      A                      A                      A
 Frequencies --    239.1325               242.0190               245.8224
 Red. masses --     36.1671                34.5682                37.8728
 Frc consts  --      1.2185                 1.1930                 1.3484
 IR Inten    --      1.6724                 0.7392                 6.4242

                     55                     56                     57
                      A                      A                      A
 Frequencies --    249.5093               259.8939               260.2014
 Red. masses --     39.2794                36.4161                37.6836
 Frc consts  --      1.4407                 1.4492                 1.5032
 IR Inten    --      1.7185                 3.1028                 0.0766

                     58                     59                     60
                      A                      A                      A
 Frequencies --    272.4733               276.2627               280.7157
 Red. masses --     34.7224                36.3391                37.4440
 Frc consts  --      1.5188                 1.6341                 1.7385
 IR Inten    --      1.9899                 2.2452                 4.3904

                     61                     62                     63
                      A                      A                      A
 Frequencies --    283.6327               287.7802               291.2900
 Red. masses --     36.4452                36.6707                38.4516
 Frc consts  --      1.7274                 1.7893                 1.9223
 IR Inten    --      0.3848                 9.2041                 4.3929

                     64                     65                     66
                      A                      A                      A
 Frequencies --    295.8248               298.3693               306.0349
 Red. masses --     37.3160                36.1707                36.4067
 Frc consts  --      1.9240                 1.8972                 2.0090
 IR Inten    --      2.9163                 0.7528                 3.4472

                     67                     68                     69
                      A                      A                      A
 Frequencies --    306.4806               313.1030               326.7839
 Red. masses --     37.0673                37.2307                37.3303
 Frc consts  --      2.0514                 2.1504                 2.3487
 IR Inten    --      8.6418                 0.7769                 0.1383

                     70                     71                     72
                      A                      A                      A
 Frequencies --    331.5912               336.3698               344.8909
 Red. masses --     36.0167                36.4852                36.3572
 Frc consts  --      2.3332                 2.4322                 2.5480
 IR Inten    --      0.2053                 0.6924                 1.7677

                     73                     74                     75
                      A                      A                      A
 Frequencies --    352.1806               364.4965               369.3835
 Red. masses --     39.4980                40.6455                35.8855
 Frc consts  --      2.8864                 3.1816                 2.8849
 IR Inten    --      1.4478                 1.6443                 0.5152

                     76                     77                     78
                      A                      A                      A
 Frequencies --    377.0859               402.7280               407.0805
 Red. masses --     38.5957                36.1424                36.0668
 Frc consts  --      3.2335                 3.4538                 3.5214
 IR Inten    --      1.8554                 6.1491                12.0104

                     79                     80                     81
                      A                      A                      A
 Frequencies --    412.1124               417.0863               419.0866
 Red. masses --     36.0595                32.5134                34.1266
 Frc consts  --      3.6083                 3.3325                 3.5314
 IR Inten    --      2.0056                20.0934                 1.1098

                     82                     83                     84
                      A                      A                      A
 Frequencies --    426.5415               429.0731               430.3789
 Red. masses --     37.1186                34.1790                34.1125
 Frc consts  --      3.9789                 3.7074                 3.7228
 IR Inten    --      7.7377                 8.3745                 2.3541

                     85                     86                     87
                      A                      A                      A
 Frequencies --    432.7726               437.0291               438.6982
 Red. masses --     25.7481                37.0097                33.3133
 Frc consts  --      2.8413                 4.1647                 3.7775
 IR Inten    --      2.9509                 2.5152                21.3809

                     88                     89                     90
                      A                      A                      A
 Frequencies --    446.8402               450.1738               453.1698
 Red. masses --      8.8758                18.6960                37.1216
 Frc consts  --      1.0441                 2.2323                 4.4916
 IR Inten    --     10.2516                69.0012                 3.1272

                     91                     92                     93
                      A                      A                      A
 Frequencies --    456.8289               457.7200               462.7966
 Red. masses --      9.3689                 5.1655                 1.8536
 Frc consts  --      1.1520                 0.6376                 0.2339
 IR Inten    --      1.2254                 6.2815                 7.5365

                     94                     95                     96
                      A                      A                      A
 Frequencies --    468.2459               470.6168               475.8579
 Red. masses --     24.5528                38.7141                39.6356
 Frc consts  --      3.1717                 5.0519                 5.2880
 IR Inten    --     20.3175                10.5347                17.7107

                     97                     98                     99
                      A                      A                      A
 Frequencies --    552.5522               559.8890               561.6539
 Red. masses --      1.0746                39.9493                39.7592
 Frc consts  --      0.1933                 7.3784                 7.3897
 IR Inten    --      7.6796               270.1491               145.3311

                    100                    101                    102
                      A                      A                      A
 Frequencies --   1217.9550              2673.5330              2692.5263
 Red. masses --      1.0388                 1.0353                 1.0402
 Frc consts  --      0.9079                 4.3598                 4.4430
 IR Inten    --     19.7398                 4.7054                 3.4197

 - Thermochemistry -
 -------------------
 Temperature   298.150 Kelvin.  Pressure   1.00000 Atm.
 Atom     1 has atomic number 42 and mass  97.90550

 Molecular mass:  1814.33380 amu.
 Principal axes and moments of inertia in atomic units:
                           1         2         3
     Eigenvalues --  ******************************
           X           -0.10484   0.98848  -0.10915
           Y           -0.57377   0.02953   0.81848
           Z            0.81228   0.14844   0.56407
 This molecule is an asymmetric top.
 Rotational symmetry number  1.
 Warning -- assumption of classical behavior for rotation
           may cause significant error
 Rotational temperatures (Kelvin)      0.00165     0.00110     0.00072
 Rotational constants (GHZ):           0.03437     0.02299     0.01499
 Zero-point vibrational energy     186209.5 (Joules/Mol)
                                   44.50514 (Kcal/Mol)
 Warning -- explicit consideration of  99 degrees of freedom as
           vibrations may cause significant error
 Vibrational temperatures:     39.29    46.18    57.34    66.09    68.07
          (Kelvin)             71.56    77.51    86.55    92.57   101.21
                              112.06   113.95   115.32   126.88   129.86
                              130.88   136.14   144.26   148.70   151.88
                              159.07   163.91   169.45   174.79   179.73
                              180.95   184.92   192.48   199.34   205.13
                              210.60   219.77   222.95   227.94   230.29
                              231.27   233.69   243.00   248.61   255.53
                              259.53   263.87   271.50   280.57   291.03
                              302.99   315.04   319.75   326.49   330.59
                              338.15   344.06   348.21   353.68   358.99
                              373.93   374.37   392.03   397.48   403.89
                              408.08   414.05   419.10   425.63   429.29
                              440.32   440.96   450.49   470.17   477.09
                              483.96   496.22   506.71   524.43   531.46
                              542.54   579.44   585.70   592.94   600.09
                              602.97   613.70   617.34   619.22   622.66
                              628.79   631.19   642.90   647.70   652.01
                              657.27   658.56   665.86   673.70   677.11
                              684.65   795.00   805.56   808.09  1752.37
                             3846.62  3873.94

 Zero-point correction=                           0.070923 (Hartree/Particle)
 Thermal correction to Energy=                    0.125364
 Thermal correction to Enthalpy=                  0.126308
 Thermal correction to Gibbs Free Energy=        -0.019981
 Sum of electronic and zero-point Energies=          -9903.687213
 Sum of electronic and thermal Energies=             -9903.632773
 Sum of electronic and thermal Enthalpies=           -9903.631829
 Sum of electronic and thermal Free Energies=        -9903.778118

                     E (Thermal)             CV                S
                      KCal/Mol        Cal/Mol-Kelvin    Cal/Mol-Kelvin
 Total                   78.667            176.518            307.892
 Electronic               0.000              0.000              0.000
 Translational            0.889              2.981             48.357
 Rotational               0.889              2.981             41.425
 Vibrational             76.890            170.556            218.110
 Vibration     1          0.593              1.984              6.016
 Vibration     2          0.594              1.983              5.695
 Vibration     3          0.594              1.981              5.266
 Vibration     4          0.595              1.979              4.985
 Vibration     5          0.595              1.979              4.927
 Vibration     6          0.595              1.978              4.828
 Vibration     7          0.596              1.976              4.670
 Vibration     8          0.597              1.973              4.452
 Vibration     9          0.597              1.971              4.320
 Vibration    10          0.598              1.968              4.144
 Vibration    11          0.599              1.964              3.944
 Vibration    12          0.600              1.963              3.911
 Vibration    13          0.600              1.963              3.887
 Vibration    14          0.601              1.957              3.700
 Vibration    15          0.602              1.956              3.654
 Vibration    16          0.602              1.956              3.639
 Vibration    17          0.603              1.953              3.562
 Vibration    18          0.604              1.949              3.449
 Vibration    19          0.605              1.947              3.390
 Vibration    20          0.605              1.945              3.349
 Vibration    21          0.606              1.941              3.259
 Vibration    22          0.607              1.938              3.201
 Vibration    23          0.608              1.935              3.137
 Vibration    24          0.609              1.931              3.077
 Vibration    25          0.610              1.928              3.023
 Vibration    26          0.611              1.927              3.010
 Vibration    27          0.611              1.925              2.968
 Vibration    28          0.613              1.920              2.891
 Vibration    29          0.614              1.915              2.824
 Vibration    30          0.616              1.911              2.769
 Vibration    31          0.617              1.907              2.719
 Vibration    32          0.619              1.900              2.638
 Vibration    33          0.620              1.897              2.610
 Vibration    34          0.621              1.893              2.569
 Vibration    35          0.622              1.891              2.549
 Vibration    36          0.622              1.890              2.541
 Vibration    37          0.623              1.889              2.521
 Vibration    38          0.625              1.881              2.448
 Vibration    39          0.626              1.876              2.405
 Vibration    40          0.628              1.870              2.353
 Vibration    41          0.629              1.866              2.324
 Vibration    42          0.631              1.862              2.294
 Vibration    43          0.633              1.855              2.241
 Vibration    44          0.636              1.847              2.180
 Vibration    45          0.639              1.837              2.112
 Vibration    46          0.643              1.825              2.039
 Vibration    47          0.647              1.812              1.968
 Vibration    48          0.648              1.807              1.941
 Vibration    49          0.651              1.800              1.903
 Vibration    50          0.652              1.796              1.881
 Vibration    51          0.655              1.787              1.840
 Vibration    52          0.657              1.781              1.809
 Vibration    53          0.658              1.776              1.788
 Vibration    54          0.660              1.770              1.760
 Vibration    55          0.662              1.764              1.734
 Vibration    56          0.668              1.746              1.662
 Vibration    57          0.668              1.745              1.660
 Vibration    58          0.675              1.724              1.580
 Vibration    59          0.678              1.717              1.557
 Vibration    60          0.680              1.709              1.529
 Vibration    61          0.682              1.704              1.512
 Vibration    62          0.685              1.696              1.487
 Vibration    63          0.687              1.690              1.466
 Vibration    64          0.690              1.682              1.440
 Vibration    65          0.691              1.677              1.426
 Vibration    66          0.696              1.662              1.384
 Vibration    67          0.697              1.661              1.381
 Vibration    68          0.701              1.649              1.346
 Vibration    69          0.710              1.622              1.276
 Vibration    70          0.714              1.612              1.252
 Vibration    71          0.717              1.603              1.229
 Vibration    72          0.723              1.586              1.189
 Vibration    73          0.729              1.571              1.156
 Vibration    74          0.738              1.545              1.103
 Vibration    75          0.742              1.535              1.082
 Vibration    76          0.748              1.519              1.051
 Vibration    77          0.768              1.464              0.953
 Vibration    78          0.772              1.455              0.937
 Vibration    79          0.776              1.444              0.919
 Vibration    80          0.780              1.433              0.902
 Vibration    81          0.782              1.429              0.895
 Vibration    82          0.788              1.412              0.870
 Vibration    83          0.790              1.407              0.862
 Vibration    84          0.792              1.404              0.857
 Vibration    85          0.794              1.399              0.850
 Vibration    86          0.797              1.389              0.836
 Vibration    87          0.799              1.386              0.831
 Vibration    88          0.806              1.368              0.805
 Vibration    89          0.809              1.361              0.795
 Vibration    90          0.812              1.354              0.786
 Vibration    91          0.815              1.346              0.775
 Vibration    92          0.816              1.344              0.773
 Vibration    93          0.820              1.333              0.758
 Vibration    94          0.825              1.320              0.742
 Vibration    95          0.828              1.315              0.736
 Vibration    96          0.832              1.304              0.721
 Vibration    97          0.908              1.134              0.539
 Vibration    98          0.916              1.118              0.524
 Vibration    99          0.917              1.114              0.521

                           ! Non-Optimized Parameters !
 Normal termination of Gaussian 16 at Mon Dec 19 09:59:50 2022.
