 Gaussian 16, Revision C.01,
 Gaussian 16:  ES64L-G16RevC.01  3-Jul-2019

 ---------------------------------------
 # opt freq b3lyp/gen nosymm pseudo=read
 ---------------------------------------

 -------------------
 Title Card Required
 -------------------
 Symbolic Z-matrix:
 Charge =  0 Multiplicity = 1

 SCF Done:  E(RB3LYP) =  -10303.1362392     A.U. after   39 cycles
 SCF Done:  E(RB3LYP) =  -10303.1520044     A.U. after   26 cycles
 SCF Done:  E(RB3LYP) =  -10303.1533384     A.U. after   25 cycles
 SCF Done:  E(RB3LYP) =  -10303.1583081     A.U. after   24 cycles
 SCF Done:  E(RB3LYP) =  -10303.1602742     A.U. after   25 cycles
 SCF Done:  E(RB3LYP) =  -10303.1620610     A.U. after   24 cycles
 SCF Done:  E(RB3LYP) =  -10303.1631492     A.U. after   25 cycles
 SCF Done:  E(RB3LYP) =  -10303.1640523     A.U. after   27 cycles
 SCF Done:  E(RB3LYP) =  -10303.1642865     A.U. after   21 cycles
 SCF Done:  E(RB3LYP) =  -10303.1648463     A.U. after   24 cycles
 SCF Done:  E(RB3LYP) =  -10303.1707161     A.U. after   15 cycles
 SCF Done:  E(RB3LYP) =  -10303.1707163     A.U. after   15 cycles
 SCF Done:  E(RB3LYP) =  -10303.1707165     A.U. after   14 cycles
 SCF Done:  E(RB3LYP) =  -10303.1707167     A.U. after   15 cycles
 SCF Done:  E(RB3LYP) =  -10303.1707168     A.U. after   13 cycles
 SCF Done:  E(RB3LYP) =  -10303.1707169     A.U. after   14 cycles
 SCF Done:  E(RB3LYP) =  -10303.1707169     A.U. after   13 cycles
 SCF Done:  E(RB3LYP) =  -10303.1707170     A.U. after   14 cycles
 SCF Done:  E(RB3LYP) =  -10303.1707170     A.U. after   13 cycles
 Optimization completed.
    -- Stationary point found.
 Normal termination of Gaussian 16 at Mon Dec 19 11:00:39 2022.

 ------------------------------------------------------------------
 #N Geom=AllCheck Guess=TCheck SCRF=Check GenChk RB3LYP/ChkBas Freq
 ------------------------------------------------------------------

 Structure from the checkpoint file:  "/localscratch/chegho/Gau-1903.chk"
 -------------------
 Title Card Required
 -------------------
 Charge =  0 Multiplicity = 1

                          Input orientation:
 ---------------------------------------------------------------------
 Center     Atomic      Atomic             Coordinates (Angstroms)
 Number     Number       Type             X           Y           Z
 ---------------------------------------------------------------------
      1         42           0        0.261972    1.542496   12.134196
      2         16           0        1.108732    3.727704   12.406566
      3         16           0       -1.957949    1.894741   12.758007
      4         16           0       -0.108038    0.995141    9.834080
      5         16           0        2.294291    0.076470   11.798255
      6         42           0       -1.945646    2.403529   10.417644
      7         16           0       -2.391430    2.060361    7.995348
      8         16           0       -1.271801    4.611275   10.593004
      9         42           0        0.811188    3.257448   10.031083
     10         16           0        0.426633    3.510716    7.487405
     11         16           0        2.906610    2.106097    9.373935
     12         42           0        2.977167    2.509475   11.703504
     13         42           0       -1.622326    4.426857    8.318222
     14         16           0        3.924078    2.342358   14.035557
     15         16           0        4.486135    4.419461   11.590959
     16         16           0       -3.867870    5.337588    8.206727
     17         16           0       -1.051625    6.835943    8.005143
     18         42           0       -4.298985    3.143579    8.625244
     19         16           0       -5.991947    2.422200    7.561967
     20         16           0       -4.409131    2.818009   10.831434
     21         42           0        2.560666    0.566248   14.033660
     22         16           0        3.378556   -1.046690   15.146666
     23         16           0        0.529124    1.134177   14.699375
     24         42           0        0.834064    5.902007    7.244767
     25         16           0        0.463780    5.690302    4.918115
     26         16           0        1.641809    5.609161    9.770704
     27         42           0        3.544693    4.413287    9.534411
     28         16           0        3.841711    3.794724    6.954014
     29         16           0        4.955825    6.296505    8.913350
     30         42           0        3.797539    5.990067    6.909702
     31         16           0        4.158070    6.396215    4.665184
     32         16           0        2.216797    7.813708    7.490469
     33         42           0        2.082626    7.289535    5.158824
     34         16           0        1.844627    7.521093    2.465898
     35          1           0        2.871148    6.758932    2.034485
     36          1           0        0.911291    6.585077    2.197460
     37         16           0        2.511715    9.899055    4.964755
     38          1           0        1.475391   10.401595    5.665507
     39          1           0        2.013667   10.288043    3.770099
 ---------------------------------------------------------------------

 SCF Done:  E(RB3LYP) =  -10303.1707170     A.U. after    3 cycles

 Alpha  occ. eigenvalues --  -88.97943 -88.96659 -88.92112 -88.90874 -88.90750
 Alpha  occ. eigenvalues --  -88.90425 -88.90400 -88.90283 -88.90280 -88.89799
 Alpha  occ. eigenvalues --  -88.89730 -88.89520 -88.89503 -88.88894 -88.88617
 Alpha  occ. eigenvalues --  -88.88524 -88.88378 -88.87910 -88.87046 -88.86999
 Alpha  occ. eigenvalues --  -88.86987 -88.86976 -88.86624 -88.86158  -8.05583
 Alpha  occ. eigenvalues --   -8.04360  -7.99489  -7.98451  -7.98234  -7.98188
 Alpha  occ. eigenvalues --   -7.97895  -7.97658  -7.97627  -7.97523  -7.97249
 Alpha  occ. eigenvalues --   -7.96953  -7.96862  -7.96463  -7.96337  -7.96127
 Alpha  occ. eigenvalues --   -7.96083  -7.95618  -7.94793  -7.94731  -7.94631
 Alpha  occ. eigenvalues --   -7.94535  -7.94503  -7.94058  -6.01891  -6.01611
 Alpha  occ. eigenvalues --   -6.01127  -6.00664  -6.00395  -5.99898  -5.95542
 Alpha  occ. eigenvalues --   -5.95462  -5.95377  -5.94525  -5.94386  -5.94330
 Alpha  occ. eigenvalues --   -5.94276  -5.94229  -5.94216  -5.94131  -5.94097
 Alpha  occ. eigenvalues --   -5.94063  -5.93954  -5.93895  -5.93754  -5.93740
 Alpha  occ. eigenvalues --   -5.93637  -5.93628  -5.93610  -5.93569  -5.93543
 Alpha  occ. eigenvalues --   -5.93506  -5.93499  -5.93381  -5.93271  -5.93235
 Alpha  occ. eigenvalues --   -5.93134  -5.93004  -5.92939  -5.92929  -5.92869
 Alpha  occ. eigenvalues --   -5.92840  -5.92711  -5.92561  -5.92430  -5.92416
 Alpha  occ. eigenvalues --   -5.92342  -5.92300  -5.92202  -5.92161  -5.92087
 Alpha  occ. eigenvalues --   -5.92062  -5.92018  -5.91990  -5.91924  -5.91700
 Alpha  occ. eigenvalues --   -5.91578  -5.91426  -5.90906  -5.90839  -5.90747
 Alpha  occ. eigenvalues --   -5.90728  -5.90683  -5.90666  -5.90620  -5.90570
 Alpha  occ. eigenvalues --   -5.90520  -5.90504  -5.90463  -5.90431  -5.90416
 Alpha  occ. eigenvalues --   -5.90391  -5.90363  -5.90046  -5.89999  -5.89941
 Alpha  occ. eigenvalues --   -2.55749  -2.55708  -2.55627  -2.55470  -2.55398
 Alpha  occ. eigenvalues --   -2.54773  -2.53981  -2.53628  -2.53042  -2.52842
 Alpha  occ. eigenvalues --   -2.52352  -1.59003  -1.58896  -1.58544  -1.58486
 Alpha  occ. eigenvalues --   -1.58159  -1.58127  -1.58054  -1.58013  -1.57806
 Alpha  occ. eigenvalues --   -1.57743  -1.57709  -1.57651  -1.57397  -1.57337
 Alpha  occ. eigenvalues --   -1.57317  -1.57206  -1.57013  -1.56606  -1.56481
 Alpha  occ. eigenvalues --   -1.56423  -1.56287  -1.56094  -1.55580  -1.55421
 Alpha  occ. eigenvalues --   -1.55364  -1.55122  -1.55002  -1.54832  -1.54708
 Alpha  occ. eigenvalues --   -1.54495  -1.54309  -1.54215  -1.53883  -0.85044
 Alpha  occ. eigenvalues --   -0.83751  -0.76275  -0.74726  -0.74079  -0.74009
 Alpha  occ. eigenvalues --   -0.73197  -0.72929  -0.72716  -0.72419  -0.72272
 Alpha  occ. eigenvalues --   -0.71799  -0.71612  -0.71052  -0.70792  -0.70481
 Alpha  occ. eigenvalues --   -0.70274  -0.69894  -0.69728  -0.69190  -0.68893
 Alpha  occ. eigenvalues --   -0.68377  -0.67880  -0.67407  -0.54658  -0.53419
 Alpha  occ. eigenvalues --   -0.48153  -0.46783  -0.43686  -0.43332  -0.42949
 Alpha  occ. eigenvalues --   -0.42324  -0.41929  -0.41323  -0.41015  -0.40789
 Alpha  occ. eigenvalues --   -0.40670  -0.40395  -0.40128  -0.40074  -0.39584
 Alpha  occ. eigenvalues --   -0.39381  -0.39215  -0.39080  -0.38746  -0.38511
 Alpha  occ. eigenvalues --   -0.38207  -0.38011  -0.37703  -0.37570  -0.37480
 Alpha  occ. eigenvalues --   -0.37129  -0.37026  -0.36877  -0.36670  -0.36446
 Alpha  occ. eigenvalues --   -0.36354  -0.36117  -0.35762  -0.35594  -0.35444
 Alpha  occ. eigenvalues --   -0.35235  -0.35031  -0.34718  -0.34515  -0.34311
 Alpha  occ. eigenvalues --   -0.34249  -0.34147  -0.33971  -0.33778  -0.33661
 Alpha  occ. eigenvalues --   -0.33566  -0.33409  -0.33126  -0.32901  -0.32656
 Alpha  occ. eigenvalues --   -0.32333  -0.32147  -0.31748  -0.31609  -0.31301
 Alpha  occ. eigenvalues --   -0.30942  -0.30638  -0.30417  -0.30360  -0.29988
 Alpha  occ. eigenvalues --   -0.29776  -0.29384  -0.29237  -0.28604  -0.28439
 Alpha  occ. eigenvalues --   -0.28240  -0.27933  -0.27331  -0.27036  -0.26907
 Alpha  occ. eigenvalues --   -0.26430  -0.26139  -0.25711  -0.25413  -0.24573
 Alpha  occ. eigenvalues --   -0.24341  -0.23858  -0.23061  -0.22395  -0.22252
 Alpha  occ. eigenvalues --   -0.21725
 Alpha virt. eigenvalues --   -0.17061  -0.15779  -0.15328  -0.14965  -0.14538
 Alpha virt. eigenvalues --   -0.14418  -0.13757  -0.13533  -0.13432  -0.13017
 Alpha virt. eigenvalues --   -0.12796  -0.12491  -0.12348  -0.11986  -0.11719

 Mulliken charges:
               1
     1  Mo  -0.208188
     2  S    0.391138
     3  S    0.037871
     4  S    0.200875
     5  S    0.070805
     6  Mo  -0.224390
     7  S    0.122851
     8  S    0.295501
     9  Mo  -0.849642
    10  S    0.137788
    11  S    0.178260
    12  Mo  -0.288378
    13  Mo  -0.242808
    14  S   -0.035569
    15  S    0.071920
    16  S   -0.015658
    17  S    0.072379
    18  Mo   0.264821
    19  S   -0.232322
    20  S   -0.018303
    21  Mo   0.277079
    22  S   -0.216722
    23  S   -0.039959
    24  Mo  -0.279006
    25  S   -0.008583
    26  S    0.187687
    27  Mo  -0.102881
    28  S    0.009870
    29  S    0.023733
    30  Mo   0.116790
    31  S   -0.051754
    32  S    0.111023
    33  Mo  -0.412409
    34  S    0.015491
    35  H    0.149743
    36  H    0.151921
    37  S    0.055594
    38  H    0.155678
    39  H    0.127752
 Sum of Mulliken charges =  -0.00000

 Dipole moment (field-independent basis, Debye):
    X=              2.4805    Y=             11.2295    Z=            -15.6433  Tot=             19.4156
 Quadrupole moment (field-independent basis, Debye-Ang):
   XX=           -602.5514   YY=           -433.7035   ZZ=           -809.8370
   XY=             23.4537   XZ=             -8.3835   YZ=             -2.4463

  Exact polarizability:    1148.134      96.072     907.628      61.691    -441.673    1163.375
 Approx polarizability:    3933.021     356.273    2859.412     119.064   -1022.871    3379.159

                      1                      2                      3
                      A                      A                      A
 Frequencies --     15.7365                28.0713                33.1228
 Red. masses --      8.7236                22.0548                22.8832
 Frc consts  --      0.0013                 0.0102                 0.0148
 IR Inten    --      0.9128                 1.0338                 1.7605

                      4                      5                      6
                      A                      A                      A
 Frequencies --     42.8035                48.3156                52.8026
 Red. masses --     28.1470                33.5315                38.8411
 Frc consts  --      0.0304                 0.0461                 0.0638
 IR Inten    --      2.0758                 0.6047                 0.3781

                      7                      8                      9
                      A                      A                      A
 Frequencies --     55.5482                62.4225                66.5146
 Red. masses --     21.6139                29.5615                36.1149
 Frc consts  --      0.0393                 0.0679                 0.0941
 IR Inten    --      0.0715                 0.4079                 0.1567

                     10                     11                     12
                      A                      A                      A
 Frequencies --     70.9509                73.8019                77.8976
 Red. masses --     19.0797                 9.1062                 5.9096
 Frc consts  --      0.0566                 0.0292                 0.0211
 IR Inten    --      0.1485                 1.4058                 6.2306

                     13                     14                     15
                      A                      A                      A
 Frequencies --     83.5015                85.9240                87.4853
 Red. masses --      4.5846                 4.2966                16.9154
 Frc consts  --      0.0188                 0.0187                 0.0763
 IR Inten    --      1.6254                 2.4521                 5.2719

                     16                     17                     18
                      A                      A                      A
 Frequencies --     89.8169                92.0393               101.4832
 Red. masses --     24.9014                28.8753                36.7003
 Frc consts  --      0.1184                 0.1441                 0.2227
 IR Inten    --      1.5545                 0.2095                 1.1321

                     19                     20                     21
                      A                      A                      A
 Frequencies --    104.0693               106.1847               109.0724
 Red. masses --     13.5709                 5.5710                19.8280
 Frc consts  --      0.0866                 0.0370                 0.1390
 IR Inten    --      0.8587                 3.0882                 2.6940

                     22                     23                     24
                      A                      A                      A
 Frequencies --    111.5675               116.2458               118.9994
 Red. masses --     46.3607                 8.3408                27.0838
 Frc consts  --      0.3400                 0.0664                 0.2260
 IR Inten    --      0.8791                 3.3694                 0.8818

                     25                     26                     27
                      A                      A                      A
 Frequencies --    122.4024               124.6734               128.6714
 Red. masses --      8.9853                31.4312                15.0551
 Frc consts  --      0.0793                 0.2878                 0.1469
 IR Inten    --      0.5708                 5.1370                 6.2676

                     28                     29                     30
                      A                      A                      A
 Frequencies --    130.6928               133.9763               139.1425
 Red. masses --     27.9400                16.1070                18.3808
 Frc consts  --      0.2812                 0.1703                 0.2097
 IR Inten    --      1.8701                 0.5008                 1.1912

                     31                     32                     33
                      A                      A                      A
 Frequencies --    142.4514               144.1368               147.1062
 Red. masses --     21.5003                 7.7784                 5.5826
 Frc consts  --      0.2571                 0.0952                 0.0712
 IR Inten    --      0.9658                 1.8210                 3.2380

                     34                     35                     36
                      A                      A                      A
 Frequencies --    151.7679               152.8565               157.2386
 Red. masses --      3.2015                28.4964                12.7900
 Frc consts  --      0.0434                 0.3923                 0.1863
 IR Inten    --      4.0669                11.0384                 0.7893

                     37                     38                     39
                      A                      A                      A
 Frequencies --    158.1110               160.4888               162.7951
 Red. masses --     31.3730                17.0639                22.6373
 Frc consts  --      0.4621                 0.2590                 0.3535
 IR Inten    --      1.2029                 1.2148                 1.7525

                     40                     41                     42
                      A                      A                      A
 Frequencies --    168.3065               170.0123               171.0808
 Red. masses --     27.7535                34.0177                38.6630
 Frc consts  --      0.4632                 0.5793                 0.6667
 IR Inten    --      1.2699                 0.9912                 2.1827

                     43                     44                     45
                      A                      A                      A
 Frequencies --    177.0667               177.7526               183.6872
 Red. masses --     45.5071                45.0336                25.0889
 Frc consts  --      0.8406                 0.8383                 0.4988
 IR Inten    --      5.6310                 0.9268                13.7671

                     46                     47                     48
                      A                      A                      A
 Frequencies --    188.0437               192.2984               195.2059
 Red. masses --     44.0781                25.9815                33.7334
 Frc consts  --      0.9183                 0.5661                 0.7573
 IR Inten    --      0.8433                 1.3742                 2.5663

                     49                     50                     51
                      A                      A                      A
 Frequencies --    202.3530               207.5384               217.2047
 Red. masses --     35.6653                40.1933                43.8283
 Frc consts  --      0.8604                 1.0200                 1.2183
 IR Inten    --      0.5261                 3.8831                 3.3054

                     52                     53                     54
                      A                      A                      A
 Frequencies --    218.6100               229.5467               235.7294
 Red. masses --     39.4759                38.4068                36.5701
 Frc consts  --      1.1115                 1.1923                 1.1973
 IR Inten    --      9.2919                 0.6700                 1.2129

                     55                     56                     57
                      A                      A                      A
 Frequencies --    239.3770               244.0901               247.1564
 Red. masses --     37.5028                36.6656                35.2869
 Frc consts  --      1.2661                 1.2871                 1.2700
 IR Inten    --      2.9466                 2.4416                 2.5714

                     58                     59                     60
                      A                      A                      A
 Frequencies --    252.0540               257.0651               259.9293
 Red. masses --     40.4371                39.8475                35.8736
 Frc consts  --      1.5136                 1.5514                 1.4280
 IR Inten    --      0.9789                 8.7239                20.2406

                     61                     62                     63
                      A                      A                      A
 Frequencies --    266.3857               272.5059               278.1275
 Red. masses --     30.3343                35.3684                33.3453
 Frc consts  --      1.2683                 1.5475                 1.5198
 IR Inten    --      6.3923                 0.2656                 5.4311

                     64                     65                     66
                      A                      A                      A
 Frequencies --    285.6668               286.4093               290.4668
 Red. masses --     36.5281                36.4644                38.5620
 Frc consts  --      1.7563                 1.7624                 1.9169
 IR Inten    --      1.9268                 3.9311                 7.1448

                     67                     68                     69
                      A                      A                      A
 Frequencies --    299.9025               302.7115               304.8320
 Red. masses --     36.1253                34.8912                37.4255
 Frc consts  --      1.9144                 1.8838                 2.0490
 IR Inten    --      2.6294                 3.7515                 1.4038

                     70                     71                     72
                      A                      A                      A
 Frequencies --    309.1069               310.8418               317.3447
 Red. masses --     34.8924                38.7080                34.8958
 Frc consts  --      1.9643                 2.2036                 2.0705
 IR Inten    --     11.8567                 0.9687                 0.8152

                     73                     74                     75
                      A                      A                      A
 Frequencies --    326.5096               333.7240               339.0993
 Red. masses --     34.5349                35.5956                36.2870
 Frc consts  --      2.1692                 2.3357                 2.4584
 IR Inten    --      0.5305                 0.9420                 0.2982

                     76                     77                     78
                      A                      A                      A
 Frequencies --    344.9058               352.6090               364.5766
 Red. masses --     35.4782                38.5913                40.4650
 Frc consts  --      2.4866                 2.8270                 3.1689
 IR Inten    --      3.2585                 0.6986                 1.7708

                     79                     80                     81
                      A                      A                      A
 Frequencies --    373.9377               380.6988               385.6063
 Red. masses --     35.5999                35.2663                35.5130
 Frc consts  --      2.9329                 3.0114                 3.1112
 IR Inten    --      0.8916                 4.0749                 8.6484

                     82                     83                     84
                      A                      A                      A
 Frequencies --    403.6433               404.8839               408.6348
 Red. masses --     32.6565                35.5777                36.5744
 Frc consts  --      3.1348                 3.4363                 3.5983
 IR Inten    --      6.7879                 1.9413                 8.3080

                     85                     86                     87
                      A                      A                      A
 Frequencies --    413.8435               424.4715               426.6938
 Red. masses --     36.2799                32.0835                31.3229
 Frc consts  --      3.6609                 3.4059                 3.3600
 IR Inten    --      2.0948                19.5635                 1.9003

                     88                     89                     90
                      A                      A                      A
 Frequencies --    429.6884               431.3360               434.9199
 Red. masses --     30.7515                27.6002                37.2621
 Frc consts  --      3.3452                 3.0255                 4.1528
 IR Inten    --      4.9350                14.2902                 3.0313

                     91                     92                     93
                      A                      A                      A
 Frequencies --    436.7817               440.8996               446.7903
 Red. masses --     28.0353                13.8552                 6.6021
 Frc consts  --      3.1513                 1.5869                 0.7765
 IR Inten    --      6.2509                 5.3222                66.0352

                     94                     95                     96
                      A                      A                      A
 Frequencies --    450.9455               457.5055               459.2944
 Red. masses --     36.9801                24.0074                36.8834
 Frc consts  --      4.4306                 2.9607                 4.5842
 IR Inten    --      0.2652                 7.4559                11.1584

                     97                     98                     99
                      A                      A                      A
 Frequencies --    468.7779               469.3670               472.5627
 Red. masses --     10.2286                30.7038                 1.4249
 Frc consts  --      1.3243                 3.9854                 0.1875
 IR Inten    --     23.9905                 3.7531                11.2834

                    100                    101                    102
                      A                      A                      A
 Frequencies --    475.7100               490.6479               520.1038
 Red. masses --     39.0011                 1.1161                 1.0780
 Frc consts  --      5.2001                 0.1583                 0.1718
 IR Inten    --     18.9775                12.3173                 7.8717

                    103                    104                    105
                      A                      A                      A
 Frequencies --    557.9520               559.7148               578.5503
 Red. masses --     39.9888                39.8039                 1.0656
 Frc consts  --      7.3347                 7.3470                 0.2102
 IR Inten    --    275.6555               152.6090                 3.0137

                    106                    107                    108
                      A                      A                      A
 Frequencies --   1215.2585              1224.9664              2662.9256
 Red. masses --      1.0385                 1.0380                 1.0363
 Frc consts  --      0.9037                 0.9177                 4.3298
 IR Inten    --     12.1969                10.5781                 3.1199

                    109                    110                    111
                      A                      A                      A
 Frequencies --   2674.1396              2688.3583              2697.4927
 Red. masses --      1.0349                 1.0406                 1.0391
 Frc consts  --      4.3601                 4.4312                 4.4549
 IR Inten    --      6.0062                 4.5398                 9.1841

 - Thermochemistry -
 -------------------
 Temperature   298.150 Kelvin.  Pressure   1.00000 Atm.
 Atom     1 has atomic number 42 and mass  97.90550

 Molecular mass:  1848.32152 amu.
 Principal axes and moments of inertia in atomic units:
                           1         2         3
     Eigenvalues --  ******************************
           X           -0.10044   0.98072  -0.16763
           Y           -0.61573   0.07107   0.78474
           Z            0.78153   0.18203   0.59672
 This molecule is an asymmetric top.
 Rotational symmetry number  1.
 Warning -- assumption of classical behavior for rotation
           may cause significant error
 Rotational temperatures (Kelvin)      0.00164     0.00101     0.00068
 Rotational constants (GHZ):           0.03409     0.02112     0.01427
 Zero-point vibrational energy     235531.7 (Joules/Mol)
                                   56.29343 (Kcal/Mol)
 Warning -- explicit consideration of 105 degrees of freedom as
           vibrations may cause significant error
 Vibrational temperatures:     22.64    40.39    47.66    61.58    69.52
          (Kelvin)             75.97    79.92    89.81    95.70   102.08
                              106.18   112.08   120.14   123.63   125.87
                              129.23   132.42   146.01   149.73   152.78
                              156.93   160.52   167.25   171.21   176.11
                              179.38   185.13   188.04   192.76   200.19
                              204.96   207.38   211.65   218.36   219.93
                              226.23   227.49   230.91   234.23   242.16
                              244.61   246.15   254.76   255.75   264.28
                              270.55   276.67   280.86   291.14   298.60
                              312.51   314.53   330.27   339.16   344.41
                              351.19   355.60   362.65   369.86   373.98
                              383.27   392.08   400.16   411.01   412.08
                              417.92   431.49   435.53   438.59   444.74
                              447.23   456.59   469.77   480.15   487.89
                              496.24   507.33   524.54   538.01   547.74
                              554.80   580.75   582.54   587.93   595.43
                              610.72   613.92   618.23   620.60   625.75
                              628.43   634.36   642.83   648.81   658.25
                              660.82   674.47   675.31   679.91   684.44
                              705.93   748.31   802.77   805.30   832.40
                             1748.49  1762.45  3831.36  3847.49  3867.95
                             3881.09

 Zero-point correction=                           0.089709 (Hartree/Particle)
 Thermal correction to Energy=                    0.147123
 Thermal correction to Enthalpy=                  0.148067
 Thermal correction to Gibbs Free Energy=        -0.004604
 Sum of electronic and zero-point Energies=         -10303.081008
 Sum of electronic and thermal Energies=            -10303.023594
 Sum of electronic and thermal Enthalpies=          -10303.022650
 Sum of electronic and thermal Free Energies=       -10303.175321

                     E (Thermal)             CV                S
                      KCal/Mol        Cal/Mol-Kelvin    Cal/Mol-Kelvin
 Total                   92.321            186.670            321.323
 Electronic               0.000              0.000              0.000
 Translational            0.889              2.981             48.413
 Rotational               0.889              2.981             41.566
 Vibrational             90.544            180.709            231.344
 Vibration     1          0.593              1.986              7.110
 Vibration     2          0.593              1.984              5.961
 Vibration     3          0.594              1.983              5.633
 Vibration     4          0.595              1.980              5.125
 Vibration     5          0.595              1.978              4.885
 Vibration     6          0.596              1.976              4.710
 Vibration     7          0.596              1.975              4.609
 Vibration     8          0.597              1.972              4.379
 Vibration     9          0.598              1.970              4.254
 Vibration    10          0.598              1.968              4.127
 Vibration    11          0.599              1.966              4.049
 Vibration    12          0.599              1.964              3.943
 Vibration    13          0.600              1.961              3.807
 Vibration    14          0.601              1.959              3.751
 Vibration    15          0.601              1.958              3.716
 Vibration    16          0.602              1.956              3.664
 Vibration    17          0.602              1.955              3.616
 Vibration    18          0.604              1.948              3.426
 Vibration    19          0.605              1.946              3.377
 Vibration    20          0.605              1.944              3.337
 Vibration    21          0.606              1.942              3.285
 Vibration    22          0.607              1.940              3.241
 Vibration    23          0.608              1.936              3.162
 Vibration    24          0.609              1.933              3.117
 Vibration    25          0.610              1.930              3.062
 Vibration    26          0.610              1.928              3.027
 Vibration    27          0.611              1.925              2.966
 Vibration    28          0.612              1.923              2.936
 Vibration    29          0.613              1.919              2.888
 Vibration    30          0.615              1.914              2.816
 Vibration    31          0.616              1.911              2.771
 Vibration    32          0.616              1.909              2.748
 Vibration    33          0.617              1.906              2.709
 Vibration    34          0.619              1.901              2.650
 Vibration    35          0.619              1.899              2.636
 Vibration    36          0.621              1.895              2.583
 Vibration    37          0.621              1.894              2.572
 Vibration    38          0.622              1.891              2.544
 Vibration    39          0.623              1.888              2.517
 Vibration    40          0.625              1.881              2.454
 Vibration    41          0.625              1.879              2.435
 Vibration    42          0.626              1.878              2.424
 Vibration    43          0.628              1.871              2.359
 Vibration    44          0.628              1.870              2.352
 Vibration    45          0.631              1.862              2.291
 Vibration    46          0.633              1.856              2.247
 Vibration    47          0.634              1.851              2.206
 Vibration    48          0.636              1.847              2.178
 Vibration    49          0.639              1.837              2.112
 Vibration    50          0.641              1.829              2.065
 Vibration    51          0.646              1.815              1.982
 Vibration    52          0.646              1.813              1.971
 Vibration    53          0.652              1.796              1.882
 Vibration    54          0.655              1.786              1.835
 Vibration    55          0.657              1.780              1.808
 Vibration    56          0.659              1.773              1.773
 Vibration    57          0.661              1.767              1.751
 Vibration    58          0.664              1.759              1.716
 Vibration    59          0.667              1.751              1.682
 Vibration    60          0.668              1.746              1.662
 Vibration    61          0.672              1.735              1.620
 Vibration    62          0.676              1.724              1.580
 Vibration    63          0.679              1.714              1.545
 Vibration    64          0.683              1.700              1.499
 Vibration    65          0.684              1.699              1.495
 Vibration    66          0.686              1.691              1.471
 Vibration    67          0.692              1.674              1.417
 Vibration    68          0.694              1.669              1.402
 Vibration    69          0.696              1.665              1.390
 Vibration    70          0.698              1.656              1.367
 Vibration    71          0.700              1.653              1.358
 Vibration    72          0.704              1.640              1.324
 Vibration    73          0.710              1.622              1.277
 Vibration    74          0.715              1.608              1.242
 Vibration    75          0.719              1.597              1.216
 Vibration    76          0.723              1.586              1.189
 Vibration    77          0.729              1.570              1.155
 Vibration    78          0.738              1.545              1.103
 Vibration    79          0.745              1.526              1.064
 Vibration    80          0.750              1.511              1.036
 Vibration    81          0.754              1.501              1.017
 Vibration    82          0.769              1.462              0.949
 Vibration    83          0.770              1.460              0.945
 Vibration    84          0.773              1.451              0.931
 Vibration    85          0.777              1.440              0.913
 Vibration    86          0.786              1.417              0.877
 Vibration    87          0.788              1.412              0.870
 Vibration    88          0.791              1.406              0.860
 Vibration    89          0.792              1.402              0.854
 Vibration    90          0.796              1.394              0.843
 Vibration    91          0.797              1.390              0.837
 Vibration    92          0.801              1.381              0.824
 Vibration    93          0.806              1.368              0.806
 Vibration    94          0.810              1.359              0.793
 Vibration    95          0.816              1.344              0.773
 Vibration    96          0.817              1.340              0.768
 Vibration    97          0.826              1.319              0.741
 Vibration    98          0.826              1.318              0.739
 Vibration    99          0.829              1.311              0.730
 Vibration   100          0.832              1.304              0.722
 Vibration   101          0.846              1.271              0.682
 Vibration   102          0.875              1.205              0.610
 Vibration   103          0.913              1.122              0.528
 Vibration   104          0.915              1.118              0.524
 Vibration   105          0.935              1.078              0.488

                           ! Non-Optimized Parameters !
 Normal termination of Gaussian 16 at Mon Dec 19 11:24:19 2022.
