 Gaussian 16, Revision C.01,
 Gaussian 16:  ES64L-G16RevC.01  3-Jul-2019

 ---------------------------------------
 # opt freq b3lyp/gen nosymm pseudo=read
 ---------------------------------------

 -------------------
 Title Card Required
 -------------------
 Symbolic Z-matrix:
 Charge =  0 Multiplicity = 1

 SCF Done:  E(RB3LYP) =  -10301.9618172     A.U. after   42 cycles
 SCF Done:  E(RB3LYP) =  -10301.9712469     A.U. after   22 cycles
 SCF Done:  E(RB3LYP) =  -10301.9840742     A.U. after   23 cycles
 SCF Done:  E(RB3LYP) =  -10301.9845299     A.U. after   24 cycles
 SCF Done:  E(RB3LYP) =  -10301.9896766     A.U. after   22 cycles
 SCF Done:  E(RB3LYP) =  -10301.9912592     A.U. after   21 cycles
 SCF Done:  E(RB3LYP) =  -10301.9927878     A.U. after   22 cycles
 SCF Done:  E(RB3LYP) =  -10301.9936316     A.U. after   22 cycles
 SCF Done:  E(RB3LYP) =  -10301.9939785     A.U. after   20 cycles
 SCF Done:  E(RB3LYP) =  -10301.9944310     A.U. after   22 cycles
 SCF Done:  E(RB3LYP) =  -10301.9949534     A.U. after   16 cycles
 SCF Done:  E(RB3LYP) =  -10301.9949537     A.U. after   16 cycles
 SCF Done:  E(RB3LYP) =  -10301.9949540     A.U. after   16 cycles
 SCF Done:  E(RB3LYP) =  -10301.9949542     A.U. after   16 cycles
 SCF Done:  E(RB3LYP) =  -10301.9949546     A.U. after   16 cycles
 SCF Done:  E(RB3LYP) =  -10301.9949548     A.U. after   15 cycles
 SCF Done:  E(RB3LYP) =  -10301.9949550     A.U. after   15 cycles
 SCF Done:  E(RB3LYP) =  -10301.9949552     A.U. after   15 cycles
 SCF Done:  E(RB3LYP) =  -10301.9949554     A.U. after   14 cycles
 Optimization completed.
    -- Stationary point found.
 Normal termination of Gaussian 16 at Mon Dec 19 10:18:00 2022.

 ------------------------------------------------------------------
 #N Geom=AllCheck Guess=TCheck SCRF=Check GenChk RB3LYP/ChkBas Freq
 ------------------------------------------------------------------

 Structure from the checkpoint file:  "/localscratch/chegho/Gau-120322.chk"
 -------------------
 Title Card Required
 -------------------
 Charge =  0 Multiplicity = 1

                          Input orientation:
 ---------------------------------------------------------------------
 Center     Atomic      Atomic             Coordinates (Angstroms)
 Number     Number       Type             X           Y           Z
 ---------------------------------------------------------------------
      1         42           0        0.255015    1.535265   12.209286
      2         16           0        1.202976    3.677560   12.430746
      3         16           0       -1.901715    2.003457   12.949866
      4         16           0       -0.270011    0.996739    9.948721
      5         16           0        2.241748    0.016548   11.745491
      6         42           0       -2.037228    2.476768   10.601409
      7         16           0       -2.686600    2.010718    8.236920
      8         16           0       -1.245833    4.643438   10.627148
      9         42           0        0.789566    3.207970   10.076027
     10         16           0        0.149756    3.305261    7.511793
     11         16           0        2.801212    2.045596    9.285507
     12         42           0        3.006262    2.426153   11.618441
     13         42           0       -1.746886    4.347977    8.381648
     14         16           0        4.034696    2.183664   13.930650
     15         16           0        4.656230    4.160165   11.440607
     16         16           0       -3.990803    5.333332    8.352234
     17         16           0       -1.107857    6.649305    7.788263
     18         42           0       -4.482921    3.206430    8.969765
     19         16           0       -6.298480    2.499945    8.134413
     20         16           0       -4.410837    3.031873   11.198910
     21         42           0        2.613868    0.463264   13.976184
     22         16           0        3.412537   -1.182111   15.046421
     23         16           0        0.633891    1.093304   14.740044
     24         42           0        0.750837    5.639282    7.004728
     25         16           0        0.473922    5.642263    4.742213
     26         16           0        1.692962    5.552194    9.914869
     27         42           0        3.473010    4.338529    9.468319
     28         16           0        3.024337    4.093221    6.912882
     29         16           0        5.028520    6.315330    8.890474
     30         42           0        3.813023    6.160090    6.996527
     31         16           0        4.498109    6.723283    4.917417
     32         16           0        2.056953    7.603221    7.492231
     33         42           0        2.164066    7.240444    5.030987
     34         16           0        2.167618    7.300898    2.583531
     35          1           0        3.455390    7.625618    2.346500
     36         16           0        1.487321    9.473122    5.066931
     37          1           0        1.373699    9.669983    3.733190
 ---------------------------------------------------------------------

 SCF Done:  E(RB3LYP) =  -10301.9949554     A.U. after    3 cycles

 Alpha  occ. eigenvalues --  -88.94714 -88.94249 -88.93197 -88.93105 -88.93086
 Alpha  occ. eigenvalues --  -88.92902 -88.92851 -88.92663 -88.92023 -88.91897
 Alpha  occ. eigenvalues --  -88.90937 -88.90794 -88.90717 -88.90673 -88.90538
 Alpha  occ. eigenvalues --  -88.90277 -88.90242 -88.89400 -88.89192 -88.89191
 Alpha  occ. eigenvalues --  -88.89017 -88.88906 -88.88365 -88.86190  -8.02094
 Alpha  occ. eigenvalues --   -8.01823  -8.00667  -8.00621  -8.00584  -8.00317
 Alpha  occ. eigenvalues --   -8.00246  -8.00009  -7.99449  -7.99412  -7.98524
 Alpha  occ. eigenvalues --   -7.98506  -7.98393  -7.98285  -7.98243  -7.97941
 Alpha  occ. eigenvalues --   -7.97855  -7.96945  -7.96940  -7.96929  -7.96782
 Alpha  occ. eigenvalues --   -7.96722  -7.96265  -7.93835  -5.98140  -5.98070
 Alpha  occ. eigenvalues --   -5.97985  -5.97872  -5.97784  -5.97685  -5.96703
 Alpha  occ. eigenvalues --   -5.96701  -5.96676  -5.96624  -5.96608  -5.96574
 Alpha  occ. eigenvalues --   -5.96495  -5.96468  -5.96446  -5.96403  -5.96386
 Alpha  occ. eigenvalues --   -5.96282  -5.96223  -5.96180  -5.96050  -5.96009
 Alpha  occ. eigenvalues --   -5.95996  -5.95946  -5.95497  -5.95438  -5.95432
 Alpha  occ. eigenvalues --   -5.95402  -5.95326  -5.95296  -5.94626  -5.94541
 Alpha  occ. eigenvalues --   -5.94461  -5.94434  -5.94417  -5.94413  -5.94363
 Alpha  occ. eigenvalues --   -5.94359  -5.94324  -5.94318  -5.94282  -5.94255
 Alpha  occ. eigenvalues --   -5.94191  -5.94113  -5.94064  -5.94024  -5.93950
 Alpha  occ. eigenvalues --   -5.93902  -5.93754  -5.93747  -5.93736  -5.93079
 Alpha  occ. eigenvalues --   -5.93054  -5.93042  -5.92935  -5.92893  -5.92880
 Alpha  occ. eigenvalues --   -5.92867  -5.92780  -5.92774  -5.92717  -5.92709
 Alpha  occ. eigenvalues --   -5.92698  -5.92684  -5.92611  -5.92476  -5.92246
 Alpha  occ. eigenvalues --   -5.92204  -5.92153  -5.90126  -5.89736  -5.89521
 Alpha  occ. eigenvalues --   -2.58559  -2.58051  -2.57992  -2.57570  -2.57436
 Alpha  occ. eigenvalues --   -2.56906  -2.56206  -2.55491  -2.55487  -2.55338
 Alpha  occ. eigenvalues --   -2.54896  -1.61535  -1.61131  -1.61081  -1.60868
 Alpha  occ. eigenvalues --   -1.60518  -1.60471  -1.60310  -1.60099  -1.60045
 Alpha  occ. eigenvalues --   -1.60035  -1.59970  -1.59958  -1.59928  -1.59589
 Alpha  occ. eigenvalues --   -1.59513  -1.59470  -1.59028  -1.58966  -1.58921
 Alpha  occ. eigenvalues --   -1.58652  -1.58151  -1.58086  -1.57944  -1.57838
 Alpha  occ. eigenvalues --   -1.57734  -1.57551  -1.57378  -1.57179  -1.57071
 Alpha  occ. eigenvalues --   -1.56860  -1.56745  -1.56555  -1.56341  -0.79003
 Alpha  occ. eigenvalues --   -0.77511  -0.76579  -0.76496  -0.76087  -0.75313
 Alpha  occ. eigenvalues --   -0.74784  -0.74716  -0.74492  -0.74164  -0.73949
 Alpha  occ. eigenvalues --   -0.73466  -0.73322  -0.73103  -0.72660  -0.72521
 Alpha  occ. eigenvalues --   -0.72080  -0.72054  -0.71845  -0.71236  -0.70985
 Alpha  occ. eigenvalues --   -0.70605  -0.70081  -0.69555  -0.46326  -0.46066
 Alpha  occ. eigenvalues --   -0.45764  -0.45111  -0.44688  -0.44225  -0.44117
 Alpha  occ. eigenvalues --   -0.43361  -0.43185  -0.43023  -0.42866  -0.42384
 Alpha  occ. eigenvalues --   -0.42045  -0.41846  -0.41593  -0.41376  -0.41200
 Alpha  occ. eigenvalues --   -0.40853  -0.40650  -0.40463  -0.40238  -0.40067
 Alpha  occ. eigenvalues --   -0.39806  -0.39552  -0.39229  -0.39007  -0.38927
 Alpha  occ. eigenvalues --   -0.38713  -0.38568  -0.38418  -0.38167  -0.37835
 Alpha  occ. eigenvalues --   -0.37694  -0.37314  -0.37178  -0.37053  -0.36909
 Alpha  occ. eigenvalues --   -0.36713  -0.36558  -0.36336  -0.36213  -0.36124
 Alpha  occ. eigenvalues --   -0.35864  -0.35787  -0.35573  -0.35506  -0.35370
 Alpha  occ. eigenvalues --   -0.35100  -0.34830  -0.34593  -0.34452  -0.34154
 Alpha  occ. eigenvalues --   -0.34001  -0.33596  -0.33322  -0.32952  -0.32600
 Alpha  occ. eigenvalues --   -0.32395  -0.32214  -0.32024  -0.31785  -0.31514
 Alpha  occ. eigenvalues --   -0.31434  -0.30865  -0.30455  -0.29899  -0.29838
 Alpha  occ. eigenvalues --   -0.29460  -0.29302  -0.29066  -0.28738  -0.28388
 Alpha  occ. eigenvalues --   -0.27623  -0.27576  -0.27048  -0.26686  -0.26381
 Alpha  occ. eigenvalues --   -0.26238  -0.25482  -0.25127  -0.24142  -0.23805
 Alpha virt. eigenvalues --   -0.18428  -0.18296  -0.17942  -0.17184  -0.16795
 Alpha virt. eigenvalues --   -0.16408  -0.15774  -0.15657  -0.15323  -0.15020
 Alpha virt. eigenvalues --   -0.14887  -0.14757  -0.14518  -0.14336  -0.13889

 Mulliken charges:
               1
     1  Mo  -0.223442
     2  S    0.399271
     3  S    0.054254
     4  S    0.202249
     5  S    0.074853
     6  Mo  -0.222740
     7  S    0.133856
     8  S    0.291167
     9  Mo  -0.856413
    10  S    0.095603
    11  S    0.193071
    12  Mo  -0.229181
    13  Mo  -0.237306
    14  S   -0.021034
    15  S    0.073582
    16  S    0.017696
    17  S    0.116918
    18  Mo   0.281084
    19  S   -0.197020
    20  S    0.009470
    21  Mo   0.293313
    22  S   -0.190779
    23  S   -0.026357
    24  Mo  -0.310788
    25  S    0.083838
    26  S    0.191276
    27  Mo  -0.085677
    28  S    0.094731
    29  S   -0.005244
    30  Mo   0.057471
    31  S   -0.002365
    32  S    0.199989
    33  Mo  -0.381152
    34  S   -0.063930
    35  H    0.078735
    36  S    0.003339
    37  H    0.107657
 Sum of Mulliken charges =  -0.00000

 Dipole moment (field-independent basis, Debye):
    X=              1.2676    Y=             -0.1826    Z=             -1.6547  Tot=              2.0924
 Quadrupole moment (field-independent basis, Debye-Ang):
   XX=           -571.5158   YY=           -572.3986   ZZ=           -627.3638
   XY=              7.0381   XZ=              2.1102   YZ=             -0.3889

  Exact polarizability:    1167.960      84.319     908.694      36.794    -473.128    1194.504
 Approx polarizability:    3950.187     296.074    2749.290      65.641    -985.162    3451.507

                      1                      2                      3
                      A                      A                      A
 Frequencies --     14.8289                28.0737                37.1893
 Red. masses --     28.9837                30.5561                32.6729
 Frc consts  --      0.0038                 0.0142                 0.0266
 IR Inten    --      6.2924                 0.0463                 2.2517

                      4                      5                      6
                      A                      A                      A
 Frequencies --     43.5057                49.5306                49.9573
 Red. masses --     36.7368                31.1260                33.7278
 Frc consts  --      0.0410                 0.0450                 0.0496
 IR Inten    --      0.6597                 5.2771                 2.0601

                      7                      8                      9
                      A                      A                      A
 Frequencies --     52.2826                57.9944                61.0933
 Red. masses --     38.2007                42.2988                36.6249
 Frc consts  --      0.0615                 0.0838                 0.0805
 IR Inten    --      0.7687                 0.4572                 0.0923

                     10                     11                     12
                      A                      A                      A
 Frequencies --     66.8364                72.5780                76.2020
 Red. masses --     25.1258                32.1199                31.7463
 Frc consts  --      0.0661                 0.0997                 0.1086
 IR Inten    --      0.6532                 0.8888                 1.5335

                     13                     14                     15
                      A                      A                      A
 Frequencies --     78.6853                85.1612                88.0855
 Red. masses --     26.8932                39.5370                40.4565
 Frc consts  --      0.0981                 0.1689                 0.1849
 IR Inten    --      1.4498                 0.7516                 0.7988

                     16                     17                     18
                      A                      A                      A
 Frequencies --     92.8735                97.7423                99.1929
 Red. masses --     36.3263                33.9632                29.8258
 Frc consts  --      0.1846                 0.1912                 0.1729
 IR Inten    --      6.0259                 0.2254                 1.0947

                     19                     20                     21
                      A                      A                      A
 Frequencies --    105.6241               107.2299               114.8758
 Red. masses --     40.8525                39.1793                37.2168
 Frc consts  --      0.2685                 0.2654                 0.2894
 IR Inten    --      2.3414                 0.3898                 1.0125

                     22                     23                     24
                      A                      A                      A
 Frequencies --    117.0781               122.3247               124.4172
 Red. masses --     40.5711                38.9194                42.7412
 Frc consts  --      0.3277                 0.3431                 0.3898
 IR Inten    --      2.2660                 1.3224                 0.1750

                     25                     26                     27
                      A                      A                      A
 Frequencies --    128.9376               131.5025               135.9429
 Red. masses --     41.1104                43.1449                44.6076
 Frc consts  --      0.4027                 0.4396                 0.4857
 IR Inten    --      0.7530                 1.2323                 1.7533

                     28                     29                     30
                      A                      A                      A
 Frequencies --    140.7867               143.9868               146.7438
 Red. masses --     22.4026                28.8966                44.1223
 Frc consts  --      0.2616                 0.3530                 0.5598
 IR Inten    --      0.3569                 0.6614                 0.0716

                     31                     32                     33
                      A                      A                      A
 Frequencies --    151.1658               153.4870               156.9800
 Red. masses --     36.1515                37.8819                36.4897
 Frc consts  --      0.4867                 0.5258                 0.5298
 IR Inten    --      5.1972                 1.2753                 1.3152

                     34                     35                     36
                      A                      A                      A
 Frequencies --    159.9784               161.2876               164.8413
 Red. masses --     35.2590                40.6776                32.1034
 Frc consts  --      0.5317                 0.6235                 0.5140
 IR Inten    --      0.9310                 1.4135                 0.9400

                     37                     38                     39
                      A                      A                      A
 Frequencies --    167.8974               169.3653               172.8470
 Red. masses --     32.8428                34.4891                38.2922
 Frc consts  --      0.5455                 0.5829                 0.6740
 IR Inten    --      0.9026                 0.2530                 4.1126

                     40                     41                     42
                      A                      A                      A
 Frequencies --    175.6797               180.9917               187.2775
 Red. masses --     22.7444                34.2293                44.5099
 Frc consts  --      0.4136                 0.6606                 0.9198
 IR Inten    --      5.4666                 2.2655                 3.4052

                     43                     44                     45
                      A                      A                      A
 Frequencies --    188.0773               190.2079               199.7886
 Red. masses --     29.4992                33.3128                22.7306
 Frc consts  --      0.6148                 0.7101                 0.5346
 IR Inten    --      1.5299                 0.4435                 0.5441

                     46                     47                     48
                      A                      A                      A
 Frequencies --    202.5287               206.5591               214.9408
 Red. masses --     21.5759                39.2024                31.9634
 Frc consts  --      0.5214                 0.9855                 0.8700
 IR Inten    --      2.2722                 6.1382                 9.7107

                     49                     50                     51
                      A                      A                      A
 Frequencies --    219.4054               221.7782               227.6330
 Red. masses --     46.3978                 9.3094                25.8145
 Frc consts  --      1.3160                 0.2698                 0.7881
 IR Inten    --      0.7061                 0.8382                 3.0983

                     52                     53                     54
                      A                      A                      A
 Frequencies --    233.4400               238.0248               243.1783
 Red. masses --     12.0731                 2.8124                27.4110
 Frc consts  --      0.3876                 0.0939                 0.9550
 IR Inten    --      1.3490                 8.5216                 2.2854

                     55                     56                     57
                      A                      A                      A
 Frequencies --    245.0971               251.3222               255.6532
 Red. masses --     10.8955                27.5495                17.3478
 Frc consts  --      0.3856                 1.0252                 0.6680
 IR Inten    --      5.2929                 0.3938                 4.6723

                     58                     59                     60
                      A                      A                      A
 Frequencies --    262.0714               269.0631               272.2942
 Red. masses --     18.0961                23.1300                31.3806
 Frc consts  --      0.7323                 0.9866                 1.3708
 IR Inten    --     17.6407                 5.2123                 9.0898

                     61                     62                     63
                      A                      A                      A
 Frequencies --    277.9030               281.0274               286.4742
 Red. masses --     22.7432                35.4029                23.4786
 Frc consts  --      1.0349                 1.6474                 1.1353
 IR Inten    --     25.1543                 3.9121                 0.8551

                     64                     65                     66
                      A                      A                      A
 Frequencies --    294.1784               296.4916               299.4833
 Red. masses --     28.8360                35.5018                32.6131
 Frc consts  --      1.4703                 1.8388                 1.7234
 IR Inten    --      1.4653                 6.0258                 0.1802

                     67                     68                     69
                      A                      A                      A
 Frequencies --    304.2285               308.1318               310.4334
 Red. masses --      9.5782                36.2453                30.4812
 Frc consts  --      0.5223                 2.0276                 1.7307
 IR Inten    --     30.5010                 3.3200                 2.5226

                     70                     71                     72
                      A                      A                      A
 Frequencies --    325.3037               335.0135               338.6903
 Red. masses --     32.0887                35.8100                29.6720
 Frc consts  --      2.0007                 2.3680                 2.0054
 IR Inten    --      0.9679                 0.4435                15.4683

                     73                     74                     75
                      A                      A                      A
 Frequencies --    341.3695               342.2291               350.8790
 Red. masses --     21.8068                36.7930                38.5203
 Frc consts  --      1.4972                 2.5389                 2.7942
 IR Inten    --      3.1613                 4.0021                 0.6959

                     76                     77                     78
                      A                      A                      A
 Frequencies --    365.2579               369.9963               382.9401
 Red. masses --     40.2662                37.9618                28.0767
 Frc consts  --      3.1651                 3.0619                 2.4258
 IR Inten    --      0.9208                 2.4858                29.8992

                     79                     80                     81
                      A                      A                      A
 Frequencies --    391.0932               404.8097               408.7658
 Red. masses --     36.0256                35.7139                36.4214
 Frc consts  --      3.2465                 3.4482                 3.5855
 IR Inten    --      1.2752                 2.5066                 1.1981

                     82                     83                     84
                      A                      A                      A
 Frequencies --    411.0510               413.3529               416.2917
 Red. masses --     35.7971                34.1966                36.8777
 Frc consts  --      3.5636                 3.4425                 3.7654
 IR Inten    --      2.1592                 2.0971                 6.1114

                     85                     86                     87
                      A                      A                      A
 Frequencies --    420.9228               429.9004               432.7717
 Red. masses --     35.0715                34.9717                33.1056
 Frc consts  --      3.6611                 3.8081                 3.6532
 IR Inten    --      5.7485                 2.5609                 1.3313

                     88                     89                     90
                      A                      A                      A
 Frequencies --    435.8698               437.6138               441.4542
 Red. masses --     37.8107                21.9194                32.4822
 Frc consts  --      4.2323                 2.4732                 3.7296
 IR Inten    --      0.8734                24.1304                14.1358

                     91                     92                     93
                      A                      A                      A
 Frequencies --    448.7808               454.9058               462.6059
 Red. masses --     38.7455                39.3016                29.1223
 Frc consts  --      4.5977                 4.7919                 3.6720
 IR Inten    --      0.7471                11.9251                28.4106

                     94                     95                     96
                      A                      A                      A
 Frequencies --    466.5270               469.5693               472.5695
 Red. masses --     16.3421                38.2488                36.4774
 Frc consts  --      2.0956                 4.9690                 4.7996
 IR Inten    --     38.5282                 8.0876                 6.2254

                     97                     98                     99
                      A                      A                      A
 Frequencies --    476.7704               483.9774               491.7273
 Red. masses --     35.4345                 1.1317                37.3761
 Frc consts  --      4.7456                 0.1562                 5.3247
 IR Inten    --      9.2282                10.6364                 5.2012

                    100                    101                    102
                      A                      A                      A
 Frequencies --    563.4996               564.9986               696.3786
 Red. masses --     39.9694                39.9565                 1.0481
 Frc consts  --      7.4777                 7.5151                 0.2995
 IR Inten    --    269.1766               140.6892                 7.9774

                    103                    104                    105
                      A                      A                      A
 Frequencies --    709.3185              2639.1785              2677.1257
 Red. masses --      1.0570                 1.0377                 1.0385
 Frc consts  --      0.3133                 4.2587                 4.3853
 IR Inten    --     25.7720                18.3974                 1.9056

 - Thermochemistry -
 -------------------
 Temperature   298.150 Kelvin.  Pressure   1.00000 Atm.
 Atom     1 has atomic number 42 and mass  97.90550

 Molecular mass:  1846.30587 amu.
 Principal axes and moments of inertia in atomic units:
                           1         2         3
     Eigenvalues --  ******************************
           X           -0.11754   0.98464  -0.12907
           Y           -0.61236   0.03045   0.78999
           Z            0.78179   0.17189   0.59938
 This molecule is an asymmetric top.
 Rotational symmetry number  1.
 Warning -- assumption of classical behavior for rotation
           may cause significant error
 Rotational temperatures (Kelvin)      0.00161     0.00102     0.00068
 Rotational constants (GHZ):           0.03358     0.02129     0.01414
 Zero-point vibrational energy     189883.2 (Joules/Mol)
                                   45.38317 (Kcal/Mol)
 Warning -- explicit consideration of 101 degrees of freedom as
           vibrations may cause significant error
 Vibrational temperatures:     21.34    40.39    53.51    62.60    71.26
          (Kelvin)             71.88    75.22    83.44    87.90    96.16
                              104.42   109.64   113.21   122.53   126.74
                              133.62   140.63   142.72   151.97   154.28
                              165.28   168.45   176.00   179.01   185.51
                              189.20   195.59   202.56   207.16   211.13
                              217.49   220.83   225.86   230.17   232.06
                              237.17   241.57   243.68   248.69   252.76
                              260.41   269.45   270.60   273.67   287.45
                              291.39   297.19   309.25   315.68   319.09
                              327.51   335.87   342.46   349.88   352.64
                              361.60   367.83   377.06   387.12   391.77
                              399.84   404.34   412.17   423.26   426.59
                              430.89   437.72   443.33   446.64   468.04
                              482.01   487.30   491.15   492.39   504.84
                              525.52   532.34   550.97   562.70   582.43
                              588.12   591.41   594.72   598.95   605.61
                              618.53   622.66   627.12   629.63   635.15
                              645.70   654.51   665.59   671.23   675.61
                              679.92   685.97   696.34   707.49   810.75
                              812.91  1001.93  1020.55  3797.19  3851.79

 Zero-point correction=                           0.072323 (Hartree/Particle)
 Thermal correction to Energy=                    0.127958
 Thermal correction to Enthalpy=                  0.128903
 Thermal correction to Gibbs Free Energy=        -0.020123
 Sum of electronic and zero-point Energies=         -10301.922633
 Sum of electronic and thermal Energies=            -10301.866997
 Sum of electronic and thermal Enthalpies=          -10301.866053
 Sum of electronic and thermal Free Energies=       -10302.015078

                     E (Thermal)             CV                S
                      KCal/Mol        Cal/Mol-Kelvin    Cal/Mol-Kelvin
 Total                   80.295            181.539            313.650
 Electronic               0.000              0.000              0.000
 Translational            0.889              2.981             48.409
 Rotational               0.889              2.981             41.582
 Vibrational             78.518            175.578            223.659
 Vibration     1          0.593              1.986              7.228
 Vibration     2          0.593              1.984              5.961
 Vibration     3          0.594              1.982              5.403
 Vibration     4          0.595              1.980              5.093
 Vibration     5          0.595              1.978              4.836
 Vibration     6          0.595              1.978              4.819
 Vibration     7          0.596              1.977              4.729
 Vibration     8          0.596              1.974              4.524
 Vibration     9          0.597              1.973              4.422
 Vibration    10          0.598              1.970              4.244
 Vibration    11          0.599              1.967              4.082
 Vibration    12          0.599              1.965              3.986
 Vibration    13          0.600              1.963              3.923
 Vibration    14          0.601              1.959              3.768
 Vibration    15          0.601              1.958              3.702
 Vibration    16          0.602              1.954              3.599
 Vibration    17          0.603              1.951              3.499
 Vibration    18          0.604              1.950              3.470
 Vibration    19          0.605              1.945              3.348
 Vibration    20          0.606              1.943              3.318
 Vibration    21          0.608              1.937              3.185
 Vibration    22          0.608              1.935              3.148
 Vibration    23          0.610              1.930              3.063
 Vibration    24          0.610              1.929              3.031
 Vibration    25          0.611              1.924              2.962
 Vibration    26          0.612              1.922              2.924
 Vibration    27          0.614              1.917              2.860
 Vibration    28          0.615              1.912              2.793
 Vibration    29          0.616              1.909              2.750
 Vibration    30          0.617              1.906              2.714
 Vibration    31          0.619              1.901              2.658
 Vibration    32          0.619              1.899              2.629
 Vibration    33          0.621              1.895              2.586
 Vibration    34          0.622              1.891              2.550
 Vibration    35          0.622              1.890              2.535
 Vibration    36          0.623              1.886              2.493
 Vibration    37          0.625              1.882              2.459
 Vibration    38          0.625              1.880              2.443
 Vibration    39          0.626              1.876              2.404
 Vibration    40          0.628              1.872              2.374
 Vibration    41          0.630              1.866              2.318
 Vibration    42          0.632              1.857              2.255
 Vibration    43          0.633              1.856              2.247
 Vibration    44          0.634              1.853              2.226
 Vibration    45          0.638              1.840              2.135
 Vibration    46          0.639              1.836              2.110
 Vibration    47          0.641              1.831              2.074
 Vibration    48          0.645              1.818              2.001
 Vibration    49          0.647              1.812              1.964
 Vibration    50          0.648              1.808              1.945
 Vibration    51          0.651              1.799              1.898
 Vibration    52          0.654              1.790              1.852
 Vibration    53          0.656              1.782              1.818
 Vibration    54          0.659              1.774              1.780
 Vibration    55          0.660              1.771              1.766
 Vibration    56          0.663              1.761              1.721
 Vibration    57          0.666              1.753              1.691
 Vibration    58          0.669              1.742              1.648
 Vibration    59          0.673              1.730              1.602
 Vibration    60          0.675              1.724              1.582
 Vibration    61          0.679              1.714              1.547
 Vibration    62          0.681              1.709              1.527
 Vibration    63          0.684              1.699              1.495
 Vibration    64          0.689              1.685              1.450
 Vibration    65          0.690              1.680              1.437
 Vibration    66          0.692              1.675              1.420
 Vibration    67          0.695              1.666              1.394
 Vibration    68          0.698              1.658              1.372
 Vibration    69          0.699              1.654              1.360
 Vibration    70          0.709              1.625              1.283
 Vibration    71          0.716              1.606              1.236
 Vibration    72          0.719              1.598              1.218
 Vibration    73          0.721              1.593              1.206
 Vibration    74          0.721              1.591              1.202
 Vibration    75          0.728              1.573              1.162
 Vibration    76          0.738              1.544              1.100
 Vibration    77          0.742              1.534              1.080
 Vibration    78          0.752              1.507              1.028
 Vibration    79          0.759              1.489              0.996
 Vibration    80          0.770              1.460              0.945
 Vibration    81          0.773              1.451              0.931
 Vibration    82          0.775              1.446              0.923
 Vibration    83          0.777              1.441              0.915
 Vibration    84          0.780              1.435              0.905
 Vibration    85          0.783              1.425              0.889
 Vibration    86          0.791              1.405              0.859
 Vibration    87          0.794              1.399              0.850
 Vibration    88          0.796              1.392              0.840
 Vibration    89          0.798              1.388              0.834
 Vibration    90          0.801              1.380              0.822
 Vibration    91          0.808              1.364              0.799
 Vibration    92          0.813              1.350              0.781
 Vibration    93          0.820              1.333              0.759
 Vibration    94          0.824              1.324              0.747
 Vibration    95          0.827              1.318              0.739
 Vibration    96          0.829              1.311              0.730
 Vibration    97          0.833              1.302              0.719
 Vibration    98          0.840              1.286              0.699
 Vibration    99          0.847              1.268              0.679
 Vibration   100          0.919              1.110              0.517
 Vibration   101          0.921              1.107              0.514

                           ! Non-Optimized Parameters !
 Normal termination of Gaussian 16 at Mon Dec 19 10:41:03 2022.
