 Gaussian 16, Revision C.01,
 Gaussian 16:  ES64L-G16RevC.01  3-Jul-2019

 ---------------------------------------
 # opt freq b3lyp/gen nosymm pseudo=read
 ---------------------------------------

 -------------------
 Title Card Required
 -------------------
 Symbolic Z-matrix:
 Charge =  0 Multiplicity = 1

 SCF Done:  E(RB3LYP) =  -10300.7189456     A.U. after   47 cycles
 SCF Done:  E(RB3LYP) =  -10300.7408607     A.U. after   29 cycles
 SCF Done:  E(RB3LYP) =  -10300.7683869     A.U. after   25 cycles
 SCF Done:  E(RB3LYP) =  -10300.7800378     A.U. after   22 cycles
 SCF Done:  E(RB3LYP) =  -10300.7952723     A.U. after   23 cycles
 SCF Done:  E(RB3LYP) =  -10300.8017499     A.U. after   23 cycles
 SCF Done:  E(RB3LYP) =  -10300.8088348     A.U. after   23 cycles
 SCF Done:  E(RB3LYP) =  -10300.8119067     A.U. after   22 cycles
 SCF Done:  E(RB3LYP) =  -10300.8139364     A.U. after   21 cycles
 SCF Done:  E(RB3LYP) =  -10300.8152069     A.U. after   21 cycles
 SCF Done:  E(RB3LYP) =  -10300.8174708     A.U. after   20 cycles
 SCF Done:  E(RB3LYP) =  -10300.8174686     A.U. after   18 cycles
 SCF Done:  E(RB3LYP) =  -10300.8174781     A.U. after   19 cycles
 SCF Done:  E(RB3LYP) =  -10300.8174793     A.U. after   15 cycles
 SCF Done:  E(RB3LYP) =  -10300.8174801     A.U. after   14 cycles
 SCF Done:  E(RB3LYP) =  -10300.8174804     A.U. after   13 cycles
 SCF Done:  E(RB3LYP) =  -10300.8174807     A.U. after   13 cycles
 SCF Done:  E(RB3LYP) =  -10300.8174809     A.U. after   13 cycles
 SCF Done:  E(RB3LYP) =  -10300.8174810     A.U. after   12 cycles
 Optimization completed.
    -- Stationary point found.
 Normal termination of Gaussian 16 at Sun Dec 18 14:35:24 2022.

 ------------------------------------------------------------------
 #N Geom=AllCheck Guess=TCheck SCRF=Check GenChk RB3LYP/ChkBas Freq
 ------------------------------------------------------------------

 Structure from the checkpoint file:  "/localscratch/chegho/Gau-171798.chk"
 -------------------
 Title Card Required
 -------------------
 Charge =  0 Multiplicity = 1

                          Input orientation:
 ---------------------------------------------------------------------
 Center     Atomic      Atomic             Coordinates (Angstroms)
 Number     Number       Type             X           Y           Z
 ---------------------------------------------------------------------
      1         42           0        0.215952    1.422804   12.156550
      2         16           0        1.238091    3.518771   12.497542
      3         16           0       -1.906882    1.870890   13.007577
      4         16           0       -0.330986    1.081147    9.854802
      5         16           0        2.084665   -0.177221   11.523636
      6         42           0       -2.063519    2.489980   10.714587
      7         16           0       -2.751665    2.210130    8.324941
      8         16           0       -1.246474    4.637957   10.866649
      9         42           0        0.804000    3.240454   10.112984
     10         16           0        0.116851    3.586083    7.640994
     11         16           0        2.738183    2.025788    9.177339
     12         42           0        2.937746    2.199535   11.552220
     13         42           0       -1.873009    4.481934    8.642231
     14         16           0        4.034360    1.746194   13.794804
     15         16           0        4.498562    4.027065   11.578596
     16         16           0       -4.011891    5.556775    8.791104
     17         16           0       -1.205547    6.916654    8.043027
     18         42           0       -4.531134    3.366970    9.181170
     19         16           0       -6.336362    2.806839    8.218757
     20         16           0       -4.452071    2.961274   11.380094
     21         42           0        2.542809    0.087209   13.766072
     22         16           0        3.297559   -1.659542   14.699346
     23         16           0        0.629751    0.780214   14.638840
     24         42           0        0.644946    5.952009    7.430616
     25         16           0        0.322612    5.421181    5.171765
     26         16           0        1.581689    5.584971    9.810179
     27         42           0        3.444116    4.276684    9.569664
     28         16           0        4.062347    4.202765    7.179449
     29         16           0        4.807602    6.520882    9.612097
     30         42           0        4.389717    6.423311    7.474213
     31         16           0        6.068208    7.218131    6.476186
     32         16           0        2.378036    7.757018    7.258511
     33         42           0        1.775040    7.198859    5.019441
     34         16           0        3.531395    6.473554    4.023926
     35         16           0        0.859775    8.846243    4.045572
 ---------------------------------------------------------------------

 SCF Done:  E(RB3LYP) =  -10300.8174810     A.U. after    3 cycles

 Alpha  occ. eigenvalues --  -88.94832 -88.93050 -88.92715 -88.92625 -88.92498
 Alpha  occ. eigenvalues --  -88.92449 -88.92406 -88.92362 -88.92124 -88.91998
 Alpha  occ. eigenvalues --  -88.91708 -88.91703 -88.91357 -88.90754 -88.90707
 Alpha  occ. eigenvalues --  -88.90319 -88.89745 -88.89395 -88.89383 -88.89310
 Alpha  occ. eigenvalues --  -88.88712 -88.88503 -88.87947 -88.87613  -8.02252
 Alpha  occ. eigenvalues --   -8.00551  -8.00358  -8.00195  -8.00008  -7.99966
 Alpha  occ. eigenvalues --   -7.99829  -7.99793  -7.99753  -7.99521  -7.99401
 Alpha  occ. eigenvalues --   -7.99233  -7.99090  -7.98392  -7.98356  -7.98032
 Alpha  occ. eigenvalues --   -7.97291  -7.97132  -7.97130  -7.97011  -7.96580
 Alpha  occ. eigenvalues --   -7.96401  -7.95793  -7.95525  -5.98299  -5.98210
 Alpha  occ. eigenvalues --   -5.98150  -5.96575  -5.96551  -5.96420  -5.96403
 Alpha  occ. eigenvalues --   -5.96299  -5.96252  -5.96251  -5.96152  -5.96067
 Alpha  occ. eigenvalues --   -5.96015  -5.96006  -5.95970  -5.95937  -5.95918
 Alpha  occ. eigenvalues --   -5.95882  -5.95858  -5.95852  -5.95834  -5.95817
 Alpha  occ. eigenvalues --   -5.95725  -5.95719  -5.95698  -5.95658  -5.95624
 Alpha  occ. eigenvalues --   -5.95537  -5.95509  -5.95465  -5.95410  -5.95355
 Alpha  occ. eigenvalues --   -5.95256  -5.95232  -5.95177  -5.95137  -5.95109
 Alpha  occ. eigenvalues --   -5.95102  -5.94918  -5.94461  -5.94456  -5.94332
 Alpha  occ. eigenvalues --   -5.94251  -5.94239  -5.94233  -5.94111  -5.93990
 Alpha  occ. eigenvalues --   -5.93842  -5.93423  -5.93247  -5.93245  -5.93215
 Alpha  occ. eigenvalues --   -5.93121  -5.93109  -5.93081  -5.93078  -5.92946
 Alpha  occ. eigenvalues --   -5.92914  -5.92908  -5.92829  -5.92593  -5.92515
 Alpha  occ. eigenvalues --   -5.92449  -5.92385  -5.92338  -5.92289  -5.91888
 Alpha  occ. eigenvalues --   -5.91735  -5.91581  -5.91577  -5.91486  -5.91315
 Alpha  occ. eigenvalues --   -2.60214  -2.57749  -2.57705  -2.57397  -2.56875
 Alpha  occ. eigenvalues --   -2.56814  -2.56600  -2.56165  -2.55735  -2.55298
 Alpha  occ. eigenvalues --   -2.55004  -1.62866  -1.62429  -1.62121  -1.60687
 Alpha  occ. eigenvalues --   -1.60453  -1.60442  -1.60353  -1.60279  -1.60227
 Alpha  occ. eigenvalues --   -1.60072  -1.59852  -1.59691  -1.59658  -1.59386
 Alpha  occ. eigenvalues --   -1.59284  -1.59113  -1.59098  -1.59068  -1.58998
 Alpha  occ. eigenvalues --   -1.58877  -1.58487  -1.58284  -1.57964  -1.57947
 Alpha  occ. eigenvalues --   -1.57872  -1.57803  -1.57622  -1.57383  -1.57214
 Alpha  occ. eigenvalues --   -1.56989  -1.56919  -1.56875  -1.56473  -0.78656
 Alpha  occ. eigenvalues --   -0.76774  -0.76608  -0.76219  -0.75238  -0.75158
 Alpha  occ. eigenvalues --   -0.74839  -0.74584  -0.74342  -0.74009  -0.73844
 Alpha  occ. eigenvalues --   -0.73458  -0.73054  -0.72783  -0.72514  -0.72335
 Alpha  occ. eigenvalues --   -0.72130  -0.71690  -0.71501  -0.70830  -0.69910
 Alpha  occ. eigenvalues --   -0.69700  -0.69688  -0.68686  -0.46044  -0.45708
 Alpha  occ. eigenvalues --   -0.45102  -0.44536  -0.43722  -0.43621  -0.43337
 Alpha  occ. eigenvalues --   -0.43035  -0.42730  -0.42525  -0.42128  -0.41895
 Alpha  occ. eigenvalues --   -0.41609  -0.41505  -0.41166  -0.41068  -0.40865
 Alpha  occ. eigenvalues --   -0.40495  -0.40382  -0.40146  -0.39966  -0.39672
 Alpha  occ. eigenvalues --   -0.39590  -0.39350  -0.39040  -0.38960  -0.38745
 Alpha  occ. eigenvalues --   -0.38509  -0.38228  -0.38067  -0.37984  -0.37770
 Alpha  occ. eigenvalues --   -0.37518  -0.37317  -0.37023  -0.36786  -0.36733
 Alpha  occ. eigenvalues --   -0.36628  -0.36418  -0.36309  -0.36169  -0.35931
 Alpha  occ. eigenvalues --   -0.35833  -0.35577  -0.35381  -0.35299  -0.35059
 Alpha  occ. eigenvalues --   -0.34950  -0.34510  -0.34308  -0.34167  -0.33874
 Alpha  occ. eigenvalues --   -0.33751  -0.33356  -0.33134  -0.32928  -0.32609
 Alpha  occ. eigenvalues --   -0.32401  -0.32229  -0.32137  -0.31693  -0.31376
 Alpha  occ. eigenvalues --   -0.31094  -0.30623  -0.30441  -0.30169  -0.29780
 Alpha  occ. eigenvalues --   -0.29527  -0.29166  -0.29014  -0.28677  -0.28119
 Alpha  occ. eigenvalues --   -0.27844  -0.27110  -0.26857  -0.26474  -0.26296
 Alpha  occ. eigenvalues --   -0.26008  -0.25786  -0.25093  -0.24284
 Alpha virt. eigenvalues --   -0.19181  -0.17892  -0.17602  -0.17451  -0.16974
 Alpha virt. eigenvalues --   -0.16502  -0.16079  -0.15560  -0.15385  -0.15214
 Alpha virt. eigenvalues --   -0.14948  -0.14770  -0.14595  -0.13989  -0.13580

 Mulliken charges:
               1
     1  Mo  -0.234570
     2  S    0.414709
     3  S    0.054720
     4  S    0.204215
     5  S    0.080422
     6  Mo  -0.226754
     7  S    0.148159
     8  S    0.277852
     9  Mo  -0.786516
    10  S    0.159110
    11  S    0.221480
    12  Mo  -0.336811
    13  Mo  -0.222714
    14  S   -0.021526
    15  S    0.062059
    16  S    0.032688
    17  S    0.031394
    18  Mo   0.275901
    19  S   -0.205670
    20  S   -0.005165
    21  Mo   0.295435
    22  S   -0.190357
    23  S   -0.025632
    24  Mo  -0.186831
    25  S    0.064826
    26  S    0.140746
    27  Mo  -0.148616
    28  S    0.088576
    29  S    0.097981
    30  Mo   0.178599
    31  S   -0.090288
    32  S   -0.041323
    33  Mo   0.295267
    34  S   -0.184374
    35  S   -0.216991
 Sum of Mulliken charges =  -0.00000

 Dipole moment (field-independent basis, Debye):
    X=              1.4486    Y=              0.1986    Z=              0.3827  Tot=              1.5115
 Quadrupole moment (field-independent basis, Debye-Ang):
   XX=           -566.4670   YY=           -569.2676   ZZ=           -591.8863
   XY=             10.2914   XZ=             11.8037   YZ=             18.9375

  Exact polarizability:    1212.953      79.207     933.861       8.311    -454.825    1068.736
 Approx polarizability:    3719.742     248.378    2890.310    -109.462   -1006.450    3177.968

                      1                      2                      3
                      A                      A                      A
 Frequencies --     16.4914                29.6386                35.5107
 Red. masses --     38.4936                43.3047                38.6228
 Frc consts  --      0.0062                 0.0224                 0.0287
 IR Inten    --      0.9390                 0.4622                 0.0727

                      4                      5                      6
                      A                      A                      A
 Frequencies --     44.6022                46.2341                48.6503
 Red. masses --     40.0295                42.5416                39.7247
 Frc consts  --      0.0469                 0.0536                 0.0554
 IR Inten    --      0.3944                 1.0967                 0.2714

                      7                      8                      9
                      A                      A                      A
 Frequencies --     58.2146                60.2212                61.2285
 Red. masses --     39.7104                41.7400                38.5505
 Frc consts  --      0.0793                 0.0892                 0.0852
 IR Inten    --      0.8632                 0.2093                 0.1596

                     10                     11                     12
                      A                      A                      A
 Frequencies --     70.2810                71.6888                75.7963
 Red. masses --     41.2982                38.3365                43.2971
 Frc consts  --      0.1202                 0.1161                 0.1466
 IR Inten    --      0.0460                 0.0843                 0.6996

                     13                     14                     15
                      A                      A                      A
 Frequencies --     83.4259                83.9470                86.0954
 Red. masses --     40.0162                42.0626                42.6530
 Frc consts  --      0.1641                 0.1746                 0.1863
 IR Inten    --      0.5911                 1.0299                 0.3953

                     16                     17                     18
                      A                      A                      A
 Frequencies --     89.3294                94.3004               100.3621
 Red. masses --     40.7516                37.6182                36.2631
 Frc consts  --      0.1916                 0.1971                 0.2152
 IR Inten    --      0.1572                 1.3318                 2.4469

                     19                     20                     21
                      A                      A                      A
 Frequencies --    106.1511               107.1746               109.2676
 Red. masses --     43.6341                43.9768                43.6199
 Frc consts  --      0.2897                 0.2976                 0.3068
 IR Inten    --      0.2461                 0.4244                 2.8496

                     22                     23                     24
                      A                      A                      A
 Frequencies --    112.6119               117.0304               119.4839
 Red. masses --     44.4431                43.1283                48.2067
 Frc consts  --      0.3321                 0.3480                 0.4055
 IR Inten    --      1.5581                 3.3424                 2.7612

                     25                     26                     27
                      A                      A                      A
 Frequencies --    128.0056               130.6824               132.8483
 Red. masses --     49.9352                49.1325                42.5892
 Frc consts  --      0.4821                 0.4944                 0.4429
 IR Inten    --      1.1681                 0.1936                 0.0677

                     28                     29                     30
                      A                      A                      A
 Frequencies --    135.9878               140.8484               142.2505
 Red. masses --     47.1313                45.8926                44.6073
 Frc consts  --      0.5135                 0.5364                 0.5318
 IR Inten    --      1.1372                 0.2298                 0.0731

                     31                     32                     33
                      A                      A                      A
 Frequencies --    144.0329               148.0433               153.3433
 Red. masses --     44.5393                42.1671                44.3939
 Frc consts  --      0.5444                 0.5445                 0.6150
 IR Inten    --      1.1988                 0.4276                 0.7301

                     34                     35                     36
                      A                      A                      A
 Frequencies --    155.7294               157.7767               159.9200
 Red. masses --     50.3299                47.8198                41.2385
 Frc consts  --      0.7191                 0.7014                 0.6214
 IR Inten    --      0.0126                 1.6235                 0.3008

                     37                     38                     39
                      A                      A                      A
 Frequencies --    162.3551               167.4617               170.9944
 Red. masses --     44.0530                47.8544                47.7364
 Frc consts  --      0.6842                 0.7907                 0.8224
 IR Inten    --      1.2650                 0.7987                 0.2003

                     40                     41                     42
                      A                      A                      A
 Frequencies --    174.6701               181.2365               183.1028
 Red. masses --     41.0494                45.7741                46.6348
 Frc consts  --      0.7379                 0.8859                 0.9212
 IR Inten    --      0.6190                 4.6846                 9.1640

                     43                     44                     45
                      A                      A                      A
 Frequencies --    185.4869               193.4222               199.8428
 Red. masses --     43.0402                47.0208                43.5395
 Frc consts  --      0.8725                 1.0365                 1.0245
 IR Inten    --      2.8039                 1.1654                 1.1478

                     46                     47                     48
                      A                      A                      A
 Frequencies --    202.7563               208.5538               218.0651
 Red. masses --     40.8484                50.0120                38.9811
 Frc consts  --      0.9894                 1.2816                 1.0921
 IR Inten    --      5.4501                 5.9568                 0.4764

                     49                     50                     51
                      A                      A                      A
 Frequencies --    219.4566               226.8470               229.1115
 Red. masses --     40.7945                37.6959                36.1377
 Frc consts  --      1.1576                 1.1429                 1.1176
 IR Inten    --      3.4769                 0.0969                 1.3465

                     52                     53                     54
                      A                      A                      A
 Frequencies --    231.7892               240.0740               246.2164
 Red. masses --     39.2873                35.2840                34.7691
 Frc consts  --      1.2436                 1.1982                 1.2419
 IR Inten    --      1.4521                 5.1919                 1.7744

                     55                     56                     57
                      A                      A                      A
 Frequencies --    252.8933               261.9122               267.8850
 Red. masses --     40.5942                36.6992                36.8809
 Frc consts  --      1.5296                 1.4833                 1.5594
 IR Inten    --      0.6326                 1.8024                 2.6219

                     58                     59                     60
                      A                      A                      A
 Frequencies --    274.1760               275.0121               278.4097
 Red. masses --     36.7729                37.7131                37.3114
 Frc consts  --      1.6287                 1.6805                 1.7040
 IR Inten    --      0.5059                 8.8503                 0.2120

                     61                     62                     63
                      A                      A                      A
 Frequencies --    286.3341               288.4334               293.0659
 Red. masses --     38.9603                38.1951                36.1498
 Frc consts  --      1.8820                 1.8722                 1.8293
 IR Inten    --      4.4519                 1.6333                 1.4413

                     64                     65                     66
                      A                      A                      A
 Frequencies --    301.8644               307.6052               310.3474
 Red. masses --     37.9760                36.3033                35.6658
 Frc consts  --      2.0388                 2.0239                 2.0239
 IR Inten    --      1.8825                 1.7504                 5.7098

                     67                     68                     69
                      A                      A                      A
 Frequencies --    314.7686               319.1412               328.6408
 Red. masses --     36.9831                37.0712                38.6170
 Frc consts  --      2.1589                 2.2246                 2.4574
 IR Inten    --      3.6793                 5.2138                 4.0687

                     70                     71                     72
                      A                      A                      A
 Frequencies --    331.6417               337.1678               342.0429
 Red. masses --     37.8825                36.8037                35.4921
 Frc consts  --      2.4549                 2.4651                 2.4465
 IR Inten    --      8.1557                 4.3261                 1.8633

                     73                     74                     75
                      A                      A                      A
 Frequencies --    355.3926               363.5055               367.9396
 Red. masses --     39.0878                41.1209                36.8695
 Frc consts  --      2.9088                 3.2014                 2.9408
 IR Inten    --      1.7290                 0.7080                 9.0915

                     76                     77                     78
                      A                      A                      A
 Frequencies --    369.7171               375.3540               403.1579
 Red. masses --     37.3771                38.3180                35.8030
 Frc consts  --      3.0102                 3.1808                 3.4286
 IR Inten    --      2.6342                 0.2490                 5.2507

                     79                     80                     81
                      A                      A                      A
 Frequencies --    408.3462               413.7429               416.5914
 Red. masses --     35.8577                36.7947                37.4570
 Frc consts  --      3.5228                 3.7111                 3.8300
 IR Inten    --      9.6742                 3.4098                 2.0094

                     82                     83                     84
                      A                      A                      A
 Frequencies --    425.9853               428.8360               431.2863
 Red. masses --     39.1378                33.9549                35.2592
 Frc consts  --      4.1844                 3.6790                 3.8641
 IR Inten    --      9.1947                 4.8550                 0.4352

                     85                     86                     87
                      A                      A                      A
 Frequencies --    436.5591               438.4028               445.1396
 Red. masses --     37.7632                38.1383                37.7900
 Frc consts  --      4.2404                 4.3188                 4.4118
 IR Inten    --      2.4615                 1.7662                 4.9543

                     88                     89                     90
                      A                      A                      A
 Frequencies --    451.2994               454.9003               465.8034
 Red. masses --     38.5970                38.7459                39.2951
 Frc consts  --      4.6316                 4.7240                 5.0234
 IR Inten    --      4.5177                 5.4917                17.3130

                     91                     92                     93
                      A                      A                      A
 Frequencies --    469.1898               475.8994               488.9870
 Red. masses --     39.4897                39.7022                38.2227
 Frc consts  --      5.1219                 5.2978                 5.3848
 IR Inten    --      8.4560                14.6848                16.7650

                     94                     95                     96
                      A                      A                      A
 Frequencies --    492.7965               521.0412               559.8350
 Red. masses --     38.4352                38.2608                40.1414
 Frc consts  --      5.4994                 6.1200                 7.4125
 IR Inten    --     14.4815                23.6708               149.7321

                     97                     98                     99
                      A                      A                      A
 Frequencies --    563.3079               564.4580               565.9966
 Red. masses --     39.9786                39.9608                39.7312
 Frc consts  --      7.4743                 7.5015                 7.4991
 IR Inten    --    270.4773               174.4655                34.6493

 - Thermochemistry -
 -------------------
 Temperature   298.150 Kelvin.  Pressure   1.00000 Atm.
 Atom     1 has atomic number 42 and mass  97.90550

 Molecular mass:  1844.29022 amu.
 Principal axes and moments of inertia in atomic units:
                           1         2         3
     Eigenvalues --  ******************************
           X           -0.18668   0.97792  -0.09397
           Y           -0.65085  -0.05146   0.75746
           Z            0.73590   0.20257   0.64608
 This molecule is an asymmetric top.
 Rotational symmetry number  1.
 Warning -- assumption of classical behavior for rotation
           may cause significant error
 Rotational temperatures (Kelvin)      0.00152     0.00106     0.00068
 Rotational constants (GHZ):           0.03169     0.02210     0.01413
 Zero-point vibrational energy     147879.1 (Joules/Mol)
                                   35.34396 (Kcal/Mol)
 Warning -- explicit consideration of  99 degrees of freedom as
           vibrations may cause significant error
 Vibrational temperatures:     23.73    42.64    51.09    64.17    66.52
          (Kelvin)             70.00    83.76    86.64    88.09   101.12
                              103.14   109.05   120.03   120.78   123.87
                              128.53   135.68   144.40   152.73   154.20
                              157.21   162.02   168.38   171.91   184.17
                              188.02   191.14   195.66   202.65   204.67
                              207.23   213.00   220.63   224.06   227.01
                              230.09   233.59   240.94   246.02   251.31
                              260.76   263.44   266.87   278.29   287.53
                              291.72   300.06   313.75   315.75   326.38
                              329.64   333.49   345.41   354.25   363.86
                              376.83   385.43   394.48   395.68   400.57
                              411.97   414.99   421.66   434.32   442.58
                              446.52   452.88   459.17   472.84   477.16
                              485.11   492.12   511.33   523.00   529.38
                              531.94   540.05   580.05   587.52   595.28
                              599.38   612.90   617.00   620.52   628.11
                              630.76   640.46   649.32   654.50   670.19
                              675.06   684.71   703.54   709.02   749.66
                              805.48   810.47   812.13   814.34

 Zero-point correction=                           0.056324 (Hartree/Particle)
 Thermal correction to Energy=                    0.110694
 Thermal correction to Enthalpy=                  0.111639
 Thermal correction to Gibbs Free Energy=        -0.035472
 Sum of electronic and zero-point Energies=         -10300.761157
 Sum of electronic and thermal Energies=            -10300.706787
 Sum of electronic and thermal Enthalpies=          -10300.705842
 Sum of electronic and thermal Free Energies=       -10300.852953

                     E (Thermal)             CV                S
                      KCal/Mol        Cal/Mol-Kelvin    Cal/Mol-Kelvin
 Total                   69.462            175.843            309.621
 Electronic               0.000              0.000              0.000
 Translational            0.889              2.981             48.406
 Rotational               0.889              2.981             41.603
 Vibrational             67.684            169.882            219.612
 Vibration     1          0.593              1.986              7.017
 Vibration     2          0.593              1.984              5.853
 Vibration     3          0.594              1.982              5.495
 Vibration     4          0.595              1.980              5.043
 Vibration     5          0.595              1.979              4.972
 Vibration     6          0.595              1.978              4.872
 Vibration     7          0.596              1.974              4.517
 Vibration     8          0.597              1.973              4.450
 Vibration     9          0.597              1.973              4.417
 Vibration    10          0.598              1.968              4.145
 Vibration    11          0.598              1.968              4.106
 Vibration    12          0.599              1.965              3.997
 Vibration    13          0.600              1.961              3.809
 Vibration    14          0.601              1.960              3.796
 Vibration    15          0.601              1.959              3.747
 Vibration    16          0.602              1.957              3.675
 Vibration    17          0.603              1.953              3.569
 Vibration    18          0.604              1.949              3.447
 Vibration    19          0.605              1.944              3.338
 Vibration    20          0.606              1.943              3.319
 Vibration    21          0.606              1.942              3.282
 Vibration    22          0.607              1.939              3.223
 Vibration    23          0.608              1.935              3.149
 Vibration    24          0.609              1.933              3.109
 Vibration    25          0.611              1.925              2.976
 Vibration    26          0.612              1.923              2.936
 Vibration    27          0.613              1.921              2.904
 Vibration    28          0.614              1.917              2.860
 Vibration    29          0.615              1.912              2.792
 Vibration    30          0.616              1.911              2.773
 Vibration    31          0.616              1.909              2.750
 Vibration    32          0.617              1.905              2.697
 Vibration    33          0.619              1.899              2.630
 Vibration    34          0.620              1.896              2.601
 Vibration    35          0.621              1.894              2.576
 Vibration    36          0.622              1.891              2.551
 Vibration    37          0.622              1.889              2.522
 Vibration    38          0.624              1.883              2.464
 Vibration    39          0.626              1.878              2.425
 Vibration    40          0.627              1.874              2.385
 Vibration    41          0.630              1.865              2.316
 Vibration    42          0.631              1.863              2.297
 Vibration    43          0.632              1.860              2.272
 Vibration    44          0.635              1.849              2.195
 Vibration    45          0.638              1.840              2.135
 Vibration    46          0.639              1.836              2.108
 Vibration    47          0.642              1.828              2.056
 Vibration    48          0.646              1.814              1.975
 Vibration    49          0.647              1.811              1.964
 Vibration    50          0.651              1.800              1.904
 Vibration    51          0.652              1.797              1.886
 Vibration    52          0.653              1.792              1.865
 Vibration    53          0.657              1.779              1.802
 Vibration    54          0.661              1.769              1.758
 Vibration    55          0.664              1.758              1.710
 Vibration    56          0.669              1.743              1.649
 Vibration    57          0.673              1.732              1.610
 Vibration    58          0.676              1.721              1.570
 Vibration    59          0.677              1.720              1.564
 Vibration    60          0.679              1.713              1.543
 Vibration    61          0.684              1.699              1.496
 Vibration    62          0.685              1.695              1.483
 Vibration    63          0.688              1.687              1.456
 Vibration    64          0.694              1.670              1.407
 Vibration    65          0.697              1.659              1.375
 Vibration    66          0.699              1.654              1.360
 Vibration    67          0.702              1.645              1.337
 Vibration    68          0.705              1.637              1.314
 Vibration    69          0.712              1.618              1.267
 Vibration    70          0.714              1.612              1.252
 Vibration    71          0.718              1.601              1.226
 Vibration    72          0.721              1.591              1.203
 Vibration    73          0.731              1.564              1.142
 Vibration    74          0.737              1.547              1.107
 Vibration    75          0.741              1.538              1.088
 Vibration    76          0.742              1.534              1.081
 Vibration    77          0.746              1.523              1.058
 Vibration    78          0.769              1.463              0.951
 Vibration    79          0.773              1.452              0.932
 Vibration    80          0.777              1.440              0.913
 Vibration    81          0.780              1.434              0.904
 Vibration    82          0.788              1.414              0.872
 Vibration    83          0.790              1.407              0.862
 Vibration    84          0.792              1.402              0.854
 Vibration    85          0.797              1.391              0.837
 Vibration    86          0.799              1.386              0.832
 Vibration    87          0.805              1.372              0.811
 Vibration    88          0.810              1.358              0.792
 Vibration    89          0.813              1.350              0.781
 Vibration    90          0.823              1.326              0.749
 Vibration    91          0.826              1.318              0.740
 Vibration    92          0.833              1.304              0.721
 Vibration    93          0.845              1.274              0.686
 Vibration    94          0.848              1.266              0.676
 Vibration    95          0.876              1.203              0.608
 Vibration    96          0.915              1.118              0.524
 Vibration    97          0.919              1.111              0.517
 Vibration    98          0.920              1.108              0.515
 Vibration    99          0.922              1.105              0.512

                           ! Non-Optimized Parameters !
 Normal termination of Gaussian 16 at Sun Dec 18 14:57:11 2022.
