 Gaussian 16, Revision C.01,
 Gaussian 16:  ES64L-G16RevC.01  3-Jul-2019

 ---------------------------------------
 # opt freq b3lyp/gen nosymm pseudo=read
 ---------------------------------------

 -------------------
 Title Card Required
 -------------------
 Symbolic Z-matrix:
 Charge =  0 Multiplicity = 1

 SCF Done:  E(RB3LYP) =  -10481.6553513     A.U. after   57 cycles
 SCF Done:  E(RB3LYP) =  -10481.6614806     A.U. after   33 cycles
 SCF Done:  E(RB3LYP) =  -10481.6775669     A.U. after   40 cycles
 SCF Done:  E(RB3LYP) =  -10481.6878995     A.U. after   32 cycles
 SCF Done:  E(RB3LYP) =  -10481.7038437     A.U. after   26 cycles
 SCF Done:  E(RB3LYP) =  -10481.7211194     A.U. after   27 cycles
 SCF Done:  E(RB3LYP) =  -10481.7268764     A.U. after   26 cycles
 SCF Done:  E(RB3LYP) =  -10481.7322210     A.U. after   27 cycles
 SCF Done:  E(RB3LYP) =  -10481.7375298     A.U. after   28 cycles
 SCF Done:  E(RB3LYP) =  -10481.7392731     A.U. after   24 cycles
 SCF Done:  E(RB3LYP) =  -10481.7622251     A.U. after   20 cycles
 SCF Done:  E(RB3LYP) =  -10481.7623736     A.U. after   22 cycles
 SCF Done:  E(RB3LYP) =  -10481.7623975     A.U. after   19 cycles
 SCF Done:  E(RB3LYP) =  -10481.7624526     A.U. after   20 cycles
 SCF Done:  E(RB3LYP) =  -10481.7624598     A.U. after   16 cycles
 SCF Done:  E(RB3LYP) =  -10481.7624696     A.U. after   18 cycles
 SCF Done:  E(RB3LYP) =  -10481.7624736     A.U. after   17 cycles
 SCF Done:  E(RB3LYP) =  -10481.7624750     A.U. after   15 cycles
 SCF Done:  E(RB3LYP) =  -10481.7624753     A.U. after   14 cycles
 Optimization completed.
    -- Stationary point found.
 Normal termination of Gaussian 16 at Mon Dec 19 13:33:52 2022.

 ------------------------------------------------------------------
 #N Geom=AllCheck Guess=TCheck SCRF=Check GenChk RB3LYP/ChkBas Freq
 ------------------------------------------------------------------

 Structure from the checkpoint file:  "/localscratch/chegho/Gau-228308.chk"
 -------------------
 Title Card Required
 -------------------
 Charge =  0 Multiplicity = 1

                          Input orientation:
 ---------------------------------------------------------------------
 Center     Atomic      Atomic             Coordinates (Angstroms)
 Number     Number       Type             X           Y           Z
 ---------------------------------------------------------------------
      1         42           0        0.165410    1.533884   12.267599
      2         16           0        1.172109    3.658075   12.479672
      3         16           0       -2.002526    2.006776   13.021258
      4         16           0       -0.317346    1.027918    9.988104
      5         16           0        2.073439   -0.066650   11.783941
      6         42           0       -2.082748    2.458581   10.697659
      7         16           0       -2.678248    1.966717    8.335630
      8         16           0       -1.302408    4.634036   10.738258
      9         42           0        0.757695    3.225830   10.118107
     10         16           0        0.143149    3.457399    7.528106
     11         16           0        2.714748    1.987095    9.314777
     12         42           0        2.907659    2.307800   11.669254
     13         42           0       -1.911063    4.270824    8.519370
     14         16           0        3.940968    2.002764   13.987973
     15         16           0        4.577432    4.007378   11.577403
     16         16           0       -3.947738    5.401630    8.370055
     17         16           0       -0.675003    6.568877    7.962654
     18         42           0       -4.493630    3.232695    9.008611
     19         16           0       -6.197776    2.576969    7.914618
     20         16           0       -4.534699    2.975512   11.223380
     21         42           0        2.452539    0.347860   14.021501
     22         16           0        3.175384   -1.340179   15.083506
     23         16           0        0.507281    1.075326   14.791766
     24         42           0        1.477710    5.599941    7.207749
     25         16           0        1.085086    5.217684    4.895927
     26         16           0        1.662567    5.562812    9.834081
     27         42           0        3.462766    4.244524    9.572962
     28         16           0        3.471493    4.119501    7.095279
     29         16           0        5.124011    6.241338    9.337342
     30         42           0        4.284833    6.295108    7.301651
     31         16           0        5.702427    6.649680    5.771982
     32         16           0        2.503223    7.909717    7.273965
     33         42           0        1.638245    7.506713    5.085567
     34         16           0        2.893603    8.021332    3.456638
     35         16           0       -0.352244    8.617840    5.090808
     36         42           0       -0.857392    6.403967    5.690781
     37          6           0       -2.815792    7.135524    5.706186
     38          8           0       -3.866393    7.572012    5.609907
 ---------------------------------------------------------------------

 SCF Done:  E(RB3LYP) =  -10481.7624753     A.U. after    3 cycles

 Alpha  occ. eigenvalues --  -88.93677 -88.93457 -88.93216 -88.93099 -88.92513
 Alpha  occ. eigenvalues --  -88.92328 -88.92065 -88.91599 -88.91569 -88.91411
 Alpha  occ. eigenvalues --  -88.91376 -88.90938 -88.90226 -88.89726 -88.89543
 Alpha  occ. eigenvalues --  -88.89394 -88.89351 -88.89072 -88.88989 -88.88657
 Alpha  occ. eigenvalues --  -88.88335 -88.88289 -88.87412 -88.87372 -19.30984
 Alpha  occ. eigenvalues --  -10.37784  -8.01209  -8.00957  -8.00872  -8.00483
 Alpha  occ. eigenvalues --   -7.99959  -7.99804  -7.99591  -7.99074  -7.98941
 Alpha  occ. eigenvalues --   -7.98820  -7.98806  -7.98460  -7.97981  -7.97447
 Alpha  occ. eigenvalues --   -7.97398  -7.96947  -7.96945  -7.96720  -7.96710
 Alpha  occ. eigenvalues --   -7.96196  -7.96072  -7.96035  -7.95311  -7.95234
 Alpha  occ. eigenvalues --   -5.97226  -5.97205  -5.97095  -5.96954  -5.96936
 Alpha  occ. eigenvalues --   -5.96916  -5.96830  -5.96819  -5.96779  -5.96561
 Alpha  occ. eigenvalues --   -5.96472  -5.96346  -5.96002  -5.95967  -5.95825
 Alpha  occ. eigenvalues --   -5.95820  -5.95803  -5.95687  -5.95633  -5.95547
 Alpha  occ. eigenvalues --   -5.95487  -5.95103  -5.95053  -5.94958  -5.94938
 Alpha  occ. eigenvalues --   -5.94924  -5.94893  -5.94888  -5.94863  -5.94792
 Alpha  occ. eigenvalues --   -5.94789  -5.94692  -5.94673  -5.94481  -5.94446
 Alpha  occ. eigenvalues --   -5.94347  -5.94044  -5.93942  -5.93798  -5.93484
 Alpha  occ. eigenvalues --   -5.93425  -5.93402  -5.93348  -5.93311  -5.93240
 Alpha  occ. eigenvalues --   -5.93055  -5.92981  -5.92883  -5.92842  -5.92839
 Alpha  occ. eigenvalues --   -5.92821  -5.92790  -5.92785  -5.92734  -5.92665
 Alpha  occ. eigenvalues --   -5.92536  -5.92525  -5.92315  -5.92191  -5.92150
 Alpha  occ. eigenvalues --   -5.92127  -5.92033  -5.92021  -5.91986  -5.91849
 Alpha  occ. eigenvalues --   -5.91812  -5.91296  -5.91282  -5.91251  -5.91198
 Alpha  occ. eigenvalues --   -5.91178  -5.91062  -2.57929  -2.57300  -2.57230
 Alpha  occ. eigenvalues --   -2.56643  -2.56547  -2.56249  -2.55767  -2.55474
 Alpha  occ. eigenvalues --   -2.55154  -2.54416  -2.54220  -2.53881  -1.61442
 Alpha  occ. eigenvalues --   -1.60446  -1.60359  -1.60146  -1.59827  -1.59684
 Alpha  occ. eigenvalues --   -1.59570  -1.59411  -1.59376  -1.59317  -1.59112
 Alpha  occ. eigenvalues --   -1.59078  -1.59015  -1.58869  -1.58813  -1.58761
 Alpha  occ. eigenvalues --   -1.58592  -1.58317  -1.58174  -1.57991  -1.57928
 Alpha  occ. eigenvalues --   -1.57842  -1.57830  -1.57486  -1.57425  -1.57286
 Alpha  occ. eigenvalues --   -1.56872  -1.56823  -1.56589  -1.56358  -1.56108
 Alpha  occ. eigenvalues --   -1.56076  -1.55898  -1.55810  -1.55753  -1.55301
 Alpha  occ. eigenvalues --   -1.21225  -0.78063  -0.76964  -0.75824  -0.75807
 Alpha  occ. eigenvalues --   -0.75510  -0.75283  -0.74758  -0.74617  -0.74198
 Alpha  occ. eigenvalues --   -0.73816  -0.73394  -0.73144  -0.72563  -0.72491
 Alpha  occ. eigenvalues --   -0.71577  -0.71465  -0.71054  -0.70966  -0.70834
 Alpha  occ. eigenvalues --   -0.70424  -0.70203  -0.69721  -0.68657  -0.68616
 Alpha  occ. eigenvalues --   -0.63192  -0.52857  -0.52646  -0.52184  -0.45244
 Alpha  occ. eigenvalues --   -0.45161  -0.44566  -0.43773  -0.43568  -0.43355
 Alpha  occ. eigenvalues --   -0.43076  -0.42688  -0.42374  -0.42028  -0.41852
 Alpha  occ. eigenvalues --   -0.41729  -0.41212  -0.41171  -0.40904  -0.40519
 Alpha  occ. eigenvalues --   -0.40429  -0.40281  -0.40063  -0.39850  -0.39420
 Alpha  occ. eigenvalues --   -0.39393  -0.39311  -0.39096  -0.38802  -0.38550
 Alpha  occ. eigenvalues --   -0.38271  -0.38146  -0.37991  -0.37800  -0.37684
 Alpha  occ. eigenvalues --   -0.37566  -0.37428  -0.37209  -0.36923  -0.36679
 Alpha  occ. eigenvalues --   -0.36350  -0.36119  -0.36049  -0.35875  -0.35746
 Alpha  occ. eigenvalues --   -0.35546  -0.35344  -0.35299  -0.35090  -0.34917
 Alpha  occ. eigenvalues --   -0.34765  -0.34631  -0.34445  -0.34230  -0.34095
 Alpha  occ. eigenvalues --   -0.33542  -0.33246  -0.32874  -0.32826  -0.32488
 Alpha  occ. eigenvalues --   -0.32294  -0.32231  -0.31880  -0.31828  -0.31475
 Alpha  occ. eigenvalues --   -0.31310  -0.31046  -0.30667  -0.30332  -0.29988
 Alpha  occ. eigenvalues --   -0.29876  -0.29552  -0.29226  -0.28942  -0.28826
 Alpha  occ. eigenvalues --   -0.28369  -0.28277  -0.27877  -0.27622  -0.26896
 Alpha  occ. eigenvalues --   -0.26708  -0.26148  -0.25775  -0.25687  -0.24932
 Alpha  occ. eigenvalues --   -0.24513  -0.24089  -0.23081
 Alpha virt. eigenvalues --   -0.19768  -0.18256  -0.17419  -0.17302  -0.15987
 Alpha virt. eigenvalues --   -0.15916  -0.15530  -0.15242  -0.14795  -0.14459
 Alpha virt. eigenvalues --   -0.13976  -0.13870  -0.13681  -0.13529  -0.13377

 Mulliken charges:
               1
     1  Mo  -0.263376
     2  S    0.389990
     3  S    0.046751
     4  S    0.202762
     5  S    0.069718
     6  Mo  -0.231660
     7  S    0.165630
     8  S    0.256462
     9  Mo  -0.671619
    10  S    0.144748
    11  S    0.209060
    12  Mo  -0.258385
    13  Mo  -0.174201
    14  S   -0.030191
    15  S    0.054826
    16  S   -0.038750
    17  S    0.177688
    18  Mo   0.220423
    19  S   -0.231834
    20  S   -0.031331
    21  Mo   0.290510
    22  S   -0.202385
    23  S   -0.030435
    24  Mo  -0.684994
    25  S    0.225338
    26  S    0.184133
    27  Mo  -0.137405
    28  S    0.136535
    29  S   -0.014749
    30  Mo   0.261439
    31  S   -0.179646
    32  S    0.079566
    33  Mo   0.211364
    34  S   -0.196308
    35  S    0.043006
    36  Mo  -0.073101
    37  C    0.245811
    38  O   -0.165392
 Sum of Mulliken charges =  -0.00000

 Dipole moment (field-independent basis, Debye):
    X=             -0.9745    Y=              3.7070    Z=             -7.0950  Tot=              8.0641
 Quadrupole moment (field-independent basis, Debye-Ang):
   XX=           -624.8770   YY=           -571.3291   ZZ=           -735.5851
   XY=            -12.4225   XZ=             -4.3416   YZ=              6.8946

  Exact polarizability:    1262.641      62.718     920.538      58.173    -479.161    1159.915
 Approx polarizability:    4267.742     220.223    2741.660      93.010   -1067.520    3469.590

                      1                      2                      3
                      A                      A                      A
 Frequencies --     18.9882                35.9642                40.8181
 Red. masses --     32.9605                29.8043                40.4910
 Frc consts  --      0.0070                 0.0227                 0.0397
 IR Inten    --      0.1620                 0.0633                 0.4676

                      4                      5                      6
                      A                      A                      A
 Frequencies --     42.6990                47.7323                53.2622
 Red. masses --     38.8532                37.4130                42.7850
 Frc consts  --      0.0417                 0.0502                 0.0715
 IR Inten    --      0.6670                 0.0464                 0.0552

                      7                      8                      9
                      A                      A                      A
 Frequencies --     54.8336                57.5256                63.5369
 Red. masses --     39.2429                36.0412                28.3560
 Frc consts  --      0.0695                 0.0703                 0.0674
 IR Inten    --      0.9440                 0.6421                 0.1890

                     10                     11                     12
                      A                      A                      A
 Frequencies --     67.5056                73.8064                76.7115
 Red. masses --     35.1998                33.9095                39.0728
 Frc consts  --      0.0945                 0.1088                 0.1355
 IR Inten    --      0.0495                 0.7877                 0.5508

                     13                     14                     15
                      A                      A                      A
 Frequencies --     79.9980                82.0055                87.3326
 Red. masses --     36.6275                43.1443                38.6258
 Frc consts  --      0.1381                 0.1709                 0.1736
 IR Inten    --      0.2970                 0.7601                 0.9218

                     16                     17                     18
                      A                      A                      A
 Frequencies --     88.7656                93.3480                94.7534
 Red. masses --     42.6498                37.8968                32.5744
 Frc consts  --      0.1980                 0.1946                 0.1723
 IR Inten    --      0.6265                 1.1090                 0.0391

                     19                     20                     21
                      A                      A                      A
 Frequencies --     97.4934               103.3875               107.0952
 Red. masses --     38.0122                27.3962                37.7814
 Frc consts  --      0.2129                 0.1725                 0.2553
 IR Inten    --      1.0188                 0.4864                 0.3141

                     22                     23                     24
                      A                      A                      A
 Frequencies --    110.3649               113.5304               115.4241
 Red. masses --     44.5537                46.0003                45.8229
 Frc consts  --      0.3197                 0.3493                 0.3597
 IR Inten    --      1.4317                 1.6036                 0.9966

                     25                     26                     27
                      A                      A                      A
 Frequencies --    118.0654               123.7696               127.0332
 Red. masses --     45.5337                49.1695                51.9192
 Frc consts  --      0.3740                 0.4438                 0.4936
 IR Inten    --      1.6947                 0.1935                 0.4208

                     28                     29                     30
                      A                      A                      A
 Frequencies --    131.0059               131.6744               138.3713
 Red. masses --     44.1501                42.8346                35.5839
 Frc consts  --      0.4464                 0.4376                 0.4014
 IR Inten    --      0.4171                 0.8539                 0.6033

                     31                     32                     33
                      A                      A                      A
 Frequencies --    140.7659               142.7499               144.1418
 Red. masses --     44.4384                48.5290                43.8614
 Frc consts  --      0.5188                 0.5826                 0.5369
 IR Inten    --      0.9909                 0.1263                 0.4943

                     34                     35                     36
                      A                      A                      A
 Frequencies --    151.3152               155.0710               157.2245
 Red. masses --     53.5142                45.8156                46.2426
 Frc consts  --      0.7219                 0.6491                 0.6735
 IR Inten    --      0.7577                 0.6660                 1.2771

                     37                     38                     39
                      A                      A                      A
 Frequencies --    158.6064               159.3739               165.4856
 Red. masses --     43.8390                40.5815                45.2526
 Frc consts  --      0.6498                 0.6073                 0.7302
 IR Inten    --      0.7092                 0.5734                 2.8041

                     40                     41                     42
                      A                      A                      A
 Frequencies --    172.5640               176.9284               181.5697
 Red. masses --     51.0407                43.7551                48.9743
 Frc consts  --      0.8955                 0.8070                 0.9513
 IR Inten    --      2.5370                 2.8850                 6.5820

                     43                     44                     45
                      A                      A                      A
 Frequencies --    188.7717               190.9717               194.7947
 Red. masses --     49.9768                43.5223                48.5301
 Frc consts  --      1.0493                 0.9352                 1.0850
 IR Inten    --      2.4513                 0.2756                 2.2569

                     46                     47                     48
                      A                      A                      A
 Frequencies --    200.6375               203.2874               208.7806
 Red. masses --     38.2058                45.6877                45.7988
 Frc consts  --      0.9062                 1.1124                 1.1762
 IR Inten    --      2.2952                 4.8213                 0.0665

                     49                     50                     51
                      A                      A                      A
 Frequencies --    209.2064               215.6858               221.3013
 Red. masses --     40.3411                43.7901                39.7646
 Frc consts  --      1.0403                 1.2002                 1.1474
 IR Inten    --      2.0100                 2.5196                 1.9120

                     52                     53                     54
                      A                      A                      A
 Frequencies --    222.4452               226.3471               229.7625
 Red. masses --     41.8111                41.2976                36.5916
 Frc consts  --      1.2190                 1.2466                 1.1381
 IR Inten    --      1.1048                 0.8413                 0.4463

                     55                     56                     57
                      A                      A                      A
 Frequencies --    237.4799               240.8380               252.9546
 Red. masses --     35.4109                39.3153                40.6772
 Frc consts  --      1.1766                 1.3436                 1.5335
 IR Inten    --      1.6751                 2.5862                 0.2703

                     58                     59                     60
                      A                      A                      A
 Frequencies --    261.3809               270.7434               276.1680
 Red. masses --     33.9654                35.0366                35.6496
 Frc consts  --      1.3672                 1.5132                 1.6020
 IR Inten    --      2.6872                 2.1192                 0.8327

                     61                     62                     63
                      A                      A                      A
 Frequencies --    281.0228               289.2360               290.7419
 Red. masses --     37.4444                34.5870                35.0261
 Frc consts  --      1.7423                 1.7048                 1.7444
 IR Inten    --      0.6606                 1.1887                 0.3965

                     64                     65                     66
                      A                      A                      A
 Frequencies --    294.3146               295.1822               302.3611
 Red. masses --     35.5780                41.6387                38.5400
 Frc consts  --      1.8157                 2.1376                 2.0759
 IR Inten    --      0.4765                 7.0886                 4.9552

                     67                     68                     69
                      A                      A                      A
 Frequencies --    303.0798               304.3380               307.3455
 Red. masses --     36.3926                37.2738                37.5872
 Frc consts  --      1.9696                 2.0341                 2.0919
 IR Inten    --      5.0886                 0.4827                 6.9190

                     70                     71                     72
                      A                      A                      A
 Frequencies --    310.0800               312.7812               317.0071
 Red. masses --     38.8274                37.3482                36.7429
 Frc consts  --      2.1996                 2.1528                 2.1755
 IR Inten    --      1.7524                 1.0644                 0.9379

                     73                     74                     75
                      A                      A                      A
 Frequencies --    323.8385               334.8571               338.7352
 Red. masses --     39.9907                38.2159                35.1570
 Frc consts  --      2.4710                 2.5247                 2.3767
 IR Inten    --      1.4755                 2.5246                 3.1229

                     76                     77                     78
                      A                      A                      A
 Frequencies --    345.4891               347.7661               351.1417
 Red. masses --     37.1037                19.7606                34.3792
 Frc consts  --      2.6094                 1.4081                 2.4975
 IR Inten    --      1.7023                29.4975                 4.8369

                     79                     80                     81
                      A                      A                      A
 Frequencies --    352.1758               360.2393               365.1525
 Red. masses --     36.4834                37.1678                40.9761
 Frc consts  --      2.6660                 2.8418                 3.2191
 IR Inten    --      1.1866                 4.6534                 4.0571

                     82                     83                     84
                      A                      A                      A
 Frequencies --    369.9321               371.9995               397.3502
 Red. masses --     34.9702                37.5256                22.5419
 Frc consts  --      2.8196                 3.0596                 2.0969
 IR Inten    --      1.4303                 1.4084                11.5445

                     85                     86                     87
                      A                      A                      A
 Frequencies --    406.9345               408.6810               409.9885
 Red. masses --     35.9792                32.1193                35.3441
 Frc consts  --      3.5104                 3.1607                 3.5003
 IR Inten    --      1.8098                 5.3613                 1.3708

                     88                     89                     90
                      A                      A                      A
 Frequencies --    412.5415               415.4739               422.7473
 Red. masses --     35.4933                37.1222                33.8473
 Frc consts  --      3.5590                 3.7755                 3.5640
 IR Inten    --      5.2200                 7.0627                 8.2517

                     91                     92                     93
                      A                      A                      A
 Frequencies --    427.8793               431.5772               432.5576
 Red. masses --     35.9991                36.4779                22.1732
 Frc consts  --      3.8832                 4.0031                 2.4444
 IR Inten    --      0.6062                 0.0421                15.5890

                     94                     95                     96
                      A                      A                      A
 Frequencies --    436.5668               443.4995               446.4592
 Red. masses --     36.6990                25.5192                29.7220
 Frc consts  --      4.1210                 2.9574                 3.4905
 IR Inten    --      1.0350                 2.9405                 0.5161

                     97                     98                     99
                      A                      A                      A
 Frequencies --    454.2695               462.2374               466.6360
 Red. masses --     35.4681                33.4261                38.4982
 Frc consts  --      4.3124                 4.2079                 4.9391
 IR Inten    --      1.1123                14.2456                11.8990

                    100                    101                    102
                      A                      A                      A
 Frequencies --    468.4766               475.4569               476.0026
 Red. masses --     39.0447                31.2745                24.9717
 Frc consts  --      5.0488                 4.1655                 3.3336
 IR Inten    --      9.0722                16.8255                 3.2696

                    103                    104                    105
                      A                      A                      A
 Frequencies --    480.6643               553.2030               556.1484
 Red. masses --     38.7804                39.9509                39.6559
 Frc consts  --      5.2789                 7.2035                 7.2267
 IR Inten    --     16.9480               191.8505                19.7521

                    106                    107                    108
                      A                      A                      A
 Frequencies --    561.8766               568.1256              2142.3536
 Red. masses --     40.0363                39.8506                13.4191
 Frc consts  --      7.4471                 7.5783                36.2874
 IR Inten    --    236.5546               181.7145               901.0829

 - Thermochemistry -
 -------------------
 Temperature   298.150 Kelvin.  Pressure   1.00000 Atm.
 Atom     1 has atomic number 42 and mass  97.90550

 Molecular mass:  1970.19064 amu.
 Principal axes and moments of inertia in atomic units:
                           1         2         3
     Eigenvalues --  ******************************
           X           -0.00402   0.99271  -0.12044
           Y           -0.62553   0.09147   0.77482
           Z            0.78019   0.07845   0.62060
 This molecule is an asymmetric top.
 Rotational symmetry number  1.
 Warning -- assumption of classical behavior for rotation
           may cause significant error
 Rotational temperatures (Kelvin)      0.00147     0.00094     0.00062
 Rotational constants (GHZ):           0.03059     0.01962     0.01284
 Zero-point vibrational energy     174419.6 (Joules/Mol)
                                   41.68728 (Kcal/Mol)
 Warning -- explicit consideration of 107 degrees of freedom as
           vibrations may cause significant error
 Vibrational temperatures:     27.32    51.74    58.73    61.43    68.68
          (Kelvin)             76.63    78.89    82.77    91.42    97.13
                              106.19   110.37   115.10   117.99   125.65
                              127.71   134.31   136.33   140.27   148.75
                              154.09   158.79   163.34   166.07   169.87
                              178.08   182.77   188.49   189.45   199.09
                              202.53   205.39   207.39   217.71   223.11
                              226.21   228.20   229.30   238.10   248.28
                              254.56   261.24   271.60   274.77   280.27
                              288.67   292.49   300.39   301.00   310.32
                              318.40   320.05   325.66   330.58   341.68
                              346.51   363.95   376.07   389.54   397.34
                              404.33   416.15   418.31   423.45   424.70
                              435.03   436.06   437.87   442.20   446.14
                              450.02   456.10   465.93   481.78   487.36
                              497.08   500.36   505.21   506.70   518.30
                              525.37   532.25   535.22   571.70   585.49
                              588.00   589.88   593.56   597.77   608.24
                              615.62   620.94   622.35   628.12   638.10
                              642.36   653.59   665.06   671.39   674.03
                              684.08   684.86   691.57   795.94   800.17
                              808.42   817.41  3082.37

 Zero-point correction=                           0.066433 (Hartree/Particle)
 Thermal correction to Energy=                    0.124364
 Thermal correction to Enthalpy=                  0.125308
 Thermal correction to Gibbs Free Energy=        -0.027946
 Sum of electronic and zero-point Energies=         -10481.696042
 Sum of electronic and thermal Energies=            -10481.638111
 Sum of electronic and thermal Enthalpies=          -10481.637167
 Sum of electronic and thermal Free Energies=       -10481.790421

                     E (Thermal)             CV                S
                      KCal/Mol        Cal/Mol-Kelvin    Cal/Mol-Kelvin
 Total                   78.040            189.300            322.551
 Electronic               0.000              0.000              0.000
 Translational            0.889              2.981             48.603
 Rotational               0.889              2.981             41.852
 Vibrational             76.262            183.338            232.096
 Vibration     1          0.593              1.986              6.737
 Vibration     2          0.594              1.982              5.470
 Vibration     3          0.594              1.981              5.219
 Vibration     4          0.595              1.980              5.130
 Vibration     5          0.595              1.978              4.909
 Vibration     6          0.596              1.976              4.692
 Vibration     7          0.596              1.976              4.635
 Vibration     8          0.596              1.974              4.540
 Vibration     9          0.597              1.972              4.344
 Vibration    10          0.598              1.970              4.225
 Vibration    11          0.599              1.966              4.049
 Vibration    12          0.599              1.965              3.973
 Vibration    13          0.600              1.963              3.891
 Vibration    14          0.600              1.961              3.842
 Vibration    15          0.601              1.958              3.719
 Vibration    16          0.602              1.957              3.687
 Vibration    17          0.602              1.954              3.589
 Vibration    18          0.603              1.953              3.559
 Vibration    19          0.603              1.951              3.504
 Vibration    20          0.605              1.946              3.389
 Vibration    21          0.606              1.944              3.321
 Vibration    22          0.606              1.941              3.262
 Vibration    23          0.607              1.938              3.208
 Vibration    24          0.608              1.937              3.176
 Vibration    25          0.608              1.934              3.132
 Vibration    26          0.610              1.929              3.041
 Vibration    27          0.611              1.926              2.990
 Vibration    28          0.612              1.922              2.931
 Vibration    29          0.612              1.922              2.921
 Vibration    30          0.614              1.915              2.826
 Vibration    31          0.615              1.913              2.793
 Vibration    32          0.616              1.910              2.767
 Vibration    33          0.616              1.909              2.748
 Vibration    34          0.619              1.901              2.656
 Vibration    35          0.620              1.897              2.609
 Vibration    36          0.621              1.895              2.583
 Vibration    37          0.621              1.893              2.566
 Vibration    38          0.621              1.892              2.557
 Vibration    39          0.624              1.885              2.486
 Vibration    40          0.626              1.876              2.407
 Vibration    41          0.628              1.871              2.361
 Vibration    42          0.630              1.865              2.312
 Vibration    43          0.633              1.855              2.240
 Vibration    44          0.634              1.852              2.218
 Vibration    45          0.635              1.847              2.182
 Vibration    46          0.638              1.839              2.127
 Vibration    47          0.639              1.835              2.103
 Vibration    48          0.642              1.827              2.054
 Vibration    49          0.642              1.827              2.051
 Vibration    50          0.645              1.817              1.995
 Vibration    51          0.648              1.809              1.948
 Vibration    52          0.648              1.807              1.939
 Vibration    53          0.650              1.801              1.908
 Vibration    54          0.652              1.796              1.881
 Vibration    55          0.656              1.783              1.822
 Vibration    56          0.658              1.778              1.797
 Vibration    57          0.664              1.758              1.710
 Vibration    58          0.669              1.743              1.653
 Vibration    59          0.674              1.727              1.591
 Vibration    60          0.678              1.717              1.557
 Vibration    61          0.681              1.709              1.527
 Vibration    62          0.686              1.694              1.478
 Vibration    63          0.687              1.691              1.470
 Vibration    64          0.689              1.684              1.449
 Vibration    65          0.689              1.683              1.444
 Vibration    66          0.694              1.669              1.404
 Vibration    67          0.695              1.668              1.400
 Vibration    68          0.695              1.665              1.393
 Vibration    69          0.697              1.660              1.377
 Vibration    70          0.699              1.655              1.362
 Vibration    71          0.701              1.649              1.348
 Vibration    72          0.704              1.641              1.325
 Vibration    73          0.708              1.628              1.291
 Vibration    74          0.716              1.606              1.237
 Vibration    75          0.719              1.598              1.218
 Vibration    76          0.724              1.584              1.187
 Vibration    77          0.725              1.580              1.176
 Vibration    78          0.728              1.573              1.161
 Vibration    79          0.729              1.571              1.156
 Vibration    80          0.735              1.554              1.121
 Vibration    81          0.738              1.544              1.100
 Vibration    82          0.742              1.534              1.080
 Vibration    83          0.744              1.530              1.072
 Vibration    84          0.764              1.476              0.972
 Vibration    85          0.772              1.455              0.938
 Vibration    86          0.773              1.451              0.931
 Vibration    87          0.774              1.449              0.927
 Vibration    88          0.776              1.443              0.918
 Vibration    89          0.779              1.437              0.907
 Vibration    90          0.785              1.421              0.883
 Vibration    91          0.789              1.410              0.866
 Vibration    92          0.793              1.401              0.854
 Vibration    93          0.793              1.399              0.850
 Vibration    94          0.797              1.390              0.837
 Vibration    95          0.803              1.375              0.816
 Vibration    96          0.806              1.369              0.807
 Vibration    97          0.813              1.351              0.783
 Vibration    98          0.820              1.334              0.760
 Vibration    99          0.824              1.324              0.747
 Vibration   100          0.826              1.320              0.742
 Vibration   101          0.832              1.304              0.722
 Vibration   102          0.833              1.303              0.721
 Vibration   103          0.837              1.293              0.708
 Vibration   104          0.909              1.133              0.538
 Vibration   105          0.912              1.126              0.532
 Vibration   106          0.918              1.114              0.520
 Vibration   107          0.924              1.100              0.508

                           ! Non-Optimized Parameters !
 Normal termination of Gaussian 16 at Mon Dec 19 14:02:02 2022.
