 Gaussian 16, Revision C.01,
 Gaussian 16:  ES64L-G16RevC.01  3-Jul-2019

 ---------------------------------------
 # opt freq b3lyp/gen nosymm pseudo=read
 ---------------------------------------

 -------------------
 Title Card Required
 -------------------
 Symbolic Z-matrix:
 Charge =  0 Multiplicity = 1

 SCF Done:  E(RB3LYP) =  -10368.2822710     A.U. after   72 cycles
 SCF Done:  E(RB3LYP) =  -10368.3031072     A.U. after   47 cycles
 SCF Done:  E(RB3LYP) =  -10368.3277089     A.U. after   35 cycles
 SCF Done:  E(RB3LYP) =  -10368.3374506     A.U. after   32 cycles
 SCF Done:  E(RB3LYP) =  -10368.3542859     A.U. after   32 cycles
 SCF Done:  E(RB3LYP) =  -10368.3575016     A.U. after   32 cycles
 SCF Done:  E(RB3LYP) =  -10368.3624376     A.U. after   30 cycles
 SCF Done:  E(RB3LYP) =  -10368.3665226     A.U. after   31 cycles
 SCF Done:  E(RB3LYP) =  -10368.3731331     A.U. after   32 cycles
 SCF Done:  E(RB3LYP) =  -10368.3777837     A.U. after   27 cycles
 SCF Done:  E(RB3LYP) =  -10368.4098565     A.U. after   22 cycles
 SCF Done:  E(RB3LYP) =  -10368.4099672     A.U. after   22 cycles
 SCF Done:  E(RB3LYP) =  -10368.4100066     A.U. after   21 cycles
 SCF Done:  E(RB3LYP) =  -10368.4100238     A.U. after   18 cycles
 SCF Done:  E(RB3LYP) =  -10368.4100358     A.U. after   19 cycles
 SCF Done:  E(RB3LYP) =  -10368.4100417     A.U. after   18 cycles
 SCF Done:  E(RB3LYP) =  -10368.4100441     A.U. after   18 cycles
 SCF Done:  E(RB3LYP) =  -10368.4100450     A.U. after   15 cycles
 SCF Done:  E(RB3LYP) =  -10368.4100456     A.U. after   15 cycles
 Optimization completed.
    -- Stationary point found.
 Normal termination of Gaussian 16 at Mon Dec 19 13:10:20 2022.

 ------------------------------------------------------------------
 #N Geom=AllCheck Guess=TCheck SCRF=Check GenChk RB3LYP/ChkBas Freq
 ------------------------------------------------------------------

 Structure from the checkpoint file:  "/localscratch/chegho/Gau-9738.chk"
 -------------------
 Title Card Required
 -------------------
 Charge =  0 Multiplicity = 1

                          Input orientation:
 ---------------------------------------------------------------------
 Center     Atomic      Atomic             Coordinates (Angstroms)
 Number     Number       Type             X           Y           Z
 ---------------------------------------------------------------------
      1         42           0        0.135519    1.587937   12.251217
      2         16           0        1.091782    3.737223   12.433508
      3         16           0       -2.082135    2.058748   12.898886
      4         16           0       -0.259116    1.007923    9.976470
      5         16           0        2.091168    0.021220   11.887501
      6         42           0       -2.074056    2.426415   10.575791
      7         16           0       -2.600779    1.808876    8.231102
      8         16           0       -1.334260    4.612420   10.534333
      9         42           0        0.772605    3.228296   10.079111
     10         16           0        0.235288    3.305399    7.401618
     11         16           0        2.778850    2.006899    9.382963
     12         42           0        2.890192    2.403972   11.738570
     13         42           0       -1.852390    4.142805    8.295886
     14         16           0        3.830346    2.202169   14.100833
     15         16           0        4.559045    4.120964   11.646109
     16         16           0       -3.862649    5.242674    7.925372
     17         16           0       -0.632495    6.386456    7.850781
     18         42           0       -4.437931    3.118693    8.732969
     19         16           0       -6.081166    2.379120    7.601056
     20         16           0       -4.564541    2.985460   10.954754
     21         42           0        2.378370    0.512955   14.123559
     22         16           0        3.095074   -1.127231   15.260912
     23         16           0        0.383895    1.209754   14.794229
     24         42           0        1.579405    5.466006    7.190801
     25         16           0        1.369978    4.848553    4.874217
     26         16           0        1.676273    5.561429    9.788027
     27         42           0        3.500311    4.271119    9.617555
     28         16           0        3.662549    4.096604    7.160377
     29         16           0        5.101593    6.362079    9.310682
     30         42           0        4.298978    6.347663    7.256949
     31         16           0        5.701859    6.713366    5.717383
     32         16           0        2.393812    7.834128    7.101029
     33         42           0        1.481564    7.218788    4.961346
     34         16           0        2.643122    7.690500    3.249779
     35         16           0       -0.753140    7.804816    4.726956
     36         42           0       -0.682741    5.697092    5.684351
 ---------------------------------------------------------------------

 SCF Done:  E(RB3LYP) =  -10368.4100456     A.U. after    3 cycles

 Alpha  occ. eigenvalues --  -88.93869 -88.93773 -88.93026 -88.92819 -88.92284
 Alpha  occ. eigenvalues --  -88.92265 -88.92031 -88.91992 -88.91821 -88.91770
 Alpha  occ. eigenvalues --  -88.91742 -88.91225 -88.90482 -88.90290 -88.90091
 Alpha  occ. eigenvalues --  -88.89601 -88.89407 -88.89139 -88.89120 -88.89076
 Alpha  occ. eigenvalues --  -88.88610 -88.88554 -88.87684 -88.87600  -8.01415
 Alpha  occ. eigenvalues --   -8.01173  -8.00480  -8.00306  -8.00078  -7.99761
 Alpha  occ. eigenvalues --   -7.99512  -7.99372  -7.99320  -7.99172  -7.99169
 Alpha  occ. eigenvalues --   -7.98744  -7.97967  -7.97849  -7.97776  -7.97263
 Alpha  occ. eigenvalues --   -7.97203  -7.97002  -7.96859  -7.96613  -7.96343
 Alpha  occ. eigenvalues --   -7.96298  -7.95582  -7.95461  -5.97443  -5.97386
 Alpha  occ. eigenvalues --   -5.97300  -5.97210  -5.97143  -5.97076  -5.96519
 Alpha  occ. eigenvalues --   -5.96489  -5.96374  -5.96339  -5.96294  -5.96153
 Alpha  occ. eigenvalues --   -5.96071  -5.96015  -5.95978  -5.95799  -5.95750
 Alpha  occ. eigenvalues --   -5.95638  -5.95554  -5.95467  -5.95413  -5.95365
 Alpha  occ. eigenvalues --   -5.95362  -5.95351  -5.95316  -5.95301  -5.95242
 Alpha  occ. eigenvalues --   -5.95228  -5.95204  -5.95156  -5.95145  -5.95044
 Alpha  occ. eigenvalues --   -5.95034  -5.94765  -5.94731  -5.94629  -5.94014
 Alpha  occ. eigenvalues --   -5.93935  -5.93912  -5.93910  -5.93839  -5.93813
 Alpha  occ. eigenvalues --   -5.93758  -5.93665  -5.93590  -5.93321  -5.93303
 Alpha  occ. eigenvalues --   -5.93186  -5.93100  -5.93095  -5.93085  -5.93046
 Alpha  occ. eigenvalues --   -5.92946  -5.92942  -5.92826  -5.92817  -5.92719
 Alpha  occ. eigenvalues --   -5.92668  -5.92549  -5.92462  -5.92458  -5.92411
 Alpha  occ. eigenvalues --   -5.92291  -5.92249  -5.92124  -5.92077  -5.91567
 Alpha  occ. eigenvalues --   -5.91520  -5.91520  -5.91470  -5.91409  -5.91275
 Alpha  occ. eigenvalues --   -2.57805  -2.57538  -2.57248  -2.56892  -2.56887
 Alpha  occ. eigenvalues --   -2.56450  -2.56183  -2.55478  -2.55360  -2.54681
 Alpha  occ. eigenvalues --   -2.54496  -2.54244  -1.61390  -1.60778  -1.60487
 Alpha  occ. eigenvalues --   -1.60182  -1.59975  -1.59880  -1.59687  -1.59628
 Alpha  occ. eigenvalues --   -1.59542  -1.59426  -1.59373  -1.59289  -1.59228
 Alpha  occ. eigenvalues --   -1.59125  -1.58976  -1.58839  -1.58734  -1.58644
 Alpha  occ. eigenvalues --   -1.58489  -1.58248  -1.58226  -1.58164  -1.57859
 Alpha  occ. eigenvalues --   -1.57669  -1.57654  -1.57135  -1.57097  -1.56914
 Alpha  occ. eigenvalues --   -1.56878  -1.56626  -1.56416  -1.56369  -1.56207
 Alpha  occ. eigenvalues --   -1.56129  -1.56082  -1.55662  -0.78452  -0.77131
 Alpha  occ. eigenvalues --   -0.76005  -0.75865  -0.75700  -0.75111  -0.74969
 Alpha  occ. eigenvalues --   -0.74547  -0.74334  -0.74199  -0.73691  -0.73424
 Alpha  occ. eigenvalues --   -0.72925  -0.72402  -0.72048  -0.71715  -0.71565
 Alpha  occ. eigenvalues --   -0.71246  -0.70716  -0.70700  -0.70284  -0.70031
 Alpha  occ. eigenvalues --   -0.68904  -0.68844  -0.45674  -0.45657  -0.45009
 Alpha  occ. eigenvalues --   -0.44256  -0.44120  -0.43663  -0.43570  -0.43093
 Alpha  occ. eigenvalues --   -0.42706  -0.42329  -0.42230  -0.41903  -0.41563
 Alpha  occ. eigenvalues --   -0.41279  -0.40966  -0.40766  -0.40663  -0.40563
 Alpha  occ. eigenvalues --   -0.40302  -0.39986  -0.39666  -0.39516  -0.39411
 Alpha  occ. eigenvalues --   -0.39349  -0.39010  -0.38641  -0.38461  -0.38269
 Alpha  occ. eigenvalues --   -0.38156  -0.38030  -0.37869  -0.37738  -0.37479
 Alpha  occ. eigenvalues --   -0.37281  -0.37171  -0.36828  -0.36473  -0.36356
 Alpha  occ. eigenvalues --   -0.36337  -0.36128  -0.35991  -0.35687  -0.35573
 Alpha  occ. eigenvalues --   -0.35260  -0.35232  -0.35122  -0.34989  -0.34880
 Alpha  occ. eigenvalues --   -0.34667  -0.34395  -0.34278  -0.33724  -0.33519
 Alpha  occ. eigenvalues --   -0.33230  -0.33023  -0.32593  -0.32458  -0.32218
 Alpha  occ. eigenvalues --   -0.32163  -0.31991  -0.31689  -0.31582  -0.31166
 Alpha  occ. eigenvalues --   -0.30938  -0.30725  -0.30330  -0.30011  -0.29596
 Alpha  occ. eigenvalues --   -0.29513  -0.29214  -0.29037  -0.28672  -0.28593
 Alpha  occ. eigenvalues --   -0.28285  -0.27950  -0.27106  -0.26705  -0.26540
 Alpha  occ. eigenvalues --   -0.26026  -0.25622  -0.25212  -0.24718  -0.24443
 Alpha  occ. eigenvalues --   -0.23369
 Alpha virt. eigenvalues --   -0.19289  -0.18061  -0.17266  -0.17044  -0.16677
 Alpha virt. eigenvalues --   -0.16081  -0.15665  -0.15322  -0.15044  -0.14606
 Alpha virt. eigenvalues --   -0.14325  -0.14059  -0.13968  -0.13757  -0.13384

 Mulliken charges:
               1
     1  Mo  -0.269323
     2  S    0.389759
     3  S    0.052555
     4  S    0.206135
     5  S    0.071758
     6  Mo  -0.200868
     7  S    0.162862
     8  S    0.249985
     9  Mo  -0.665636
    10  S    0.140154
    11  S    0.212687
    12  Mo  -0.260301
    13  Mo  -0.286244
    14  S   -0.026809
    15  S    0.052996
    16  S    0.000969
    17  S    0.234128
    18  Mo   0.197928
    19  S   -0.226186
    20  S   -0.032658
    21  Mo   0.286310
    22  S   -0.199725
    23  S   -0.027799
    24  Mo  -0.708392
    25  S    0.254319
    26  S    0.175924
    27  Mo  -0.084703
    28  S    0.131134
    29  S   -0.027129
    30  Mo   0.271316
    31  S   -0.177571
    32  S    0.059626
    33  Mo   0.212211
    34  S   -0.190519
    35  S    0.005628
    36  Mo   0.015477
 Sum of Mulliken charges =  -0.00000

 Dipole moment (field-independent basis, Debye):
    X=             -0.3199    Y=              2.1002    Z=             -5.7059  Tot=              6.0885
 Quadrupole moment (field-independent basis, Debye-Ang):
   XX=           -612.8009   YY=           -576.3993   ZZ=           -703.3973
   XY=             -7.2084   XZ=             -1.7200   YZ=              2.5113

  Exact polarizability:    1202.894     100.661     868.151      63.316    -456.883    1203.533
 Approx polarizability:    4015.395     329.340    2671.182     166.367   -1064.526    3676.178

                      1                      2                      3
                      A                      A                      A
 Frequencies --     18.5832                31.6695                40.1793
 Red. masses --     46.1543                49.8625                41.9119
 Frc consts  --      0.0094                 0.0295                 0.0399
 IR Inten    --      0.8387                 3.1572                 0.4464

                      4                      5                      6
                      A                      A                      A
 Frequencies --     43.7801                49.9629                51.3752
 Red. masses --     40.1070                42.7594                37.9684
 Frc consts  --      0.0453                 0.0629                 0.0590
 IR Inten    --      0.2396                 0.0701                 0.7060

                      7                      8                      9
                      A                      A                      A
 Frequencies --     53.9527                62.1365                66.7805
 Red. masses --     42.6547                41.5105                39.0243
 Frc consts  --      0.0732                 0.0944                 0.1025
 IR Inten    --      0.3761                 0.9082                 0.2925

                     10                     11                     12
                      A                      A                      A
 Frequencies --     71.7513                74.7295                77.5146
 Red. masses --     41.0170                38.6153                40.0529
 Frc consts  --      0.1244                 0.1271                 0.1418
 IR Inten    --      0.4827                 0.1714                 0.4515

                     13                     14                     15
                      A                      A                      A
 Frequencies --     80.1004                86.6173                90.4690
 Red. masses --     46.8136                39.4829                40.9027
 Frc consts  --      0.1770                 0.1745                 0.1972
 IR Inten    --      1.3222                 1.9722                 0.9253

                     16                     17                     18
                      A                      A                      A
 Frequencies --     92.2330                94.1146                94.8532
 Red. masses --     41.3204                42.0088                40.0322
 Frc consts  --      0.2071                 0.2192                 0.2122
 IR Inten    --      0.8054                 0.6702                 1.6279

                     19                     20                     21
                      A                      A                      A
 Frequencies --    102.8802               105.2029               112.7532
 Red. masses --     43.2971                41.3659                46.6074
 Frc consts  --      0.2700                 0.2697                 0.3491
 IR Inten    --      0.3920                 0.8388                 0.3822

                     22                     23                     24
                      A                      A                      A
 Frequencies --    114.6021               118.8054               122.9627
 Red. masses --     47.3747                49.5642                49.3513
 Frc consts  --      0.3666                 0.4122                 0.4396
 IR Inten    --      1.5383                 2.9295                 0.4489

                     25                     26                     27
                      A                      A                      A
 Frequencies --    126.7765               129.7818               130.6594
 Red. masses --     45.0541                38.7651                45.7884
 Frc consts  --      0.4266                 0.3847                 0.4606
 IR Inten    --      0.1661                 0.7947                 0.8308

                     28                     29                     30
                      A                      A                      A
 Frequencies --    133.3163               137.1916               141.6305
 Red. masses --     43.7655                43.5384                50.1042
 Frc consts  --      0.4583                 0.4828                 0.5922
 IR Inten    --      0.9061                 0.8764                 0.4272

                     31                     32                     33
                      A                      A                      A
 Frequencies --    143.8485               148.2422               151.5751
 Red. masses --     47.0390                44.8412                47.7349
 Frc consts  --      0.5735                 0.5806                 0.6462
 IR Inten    --      0.9245                 0.6762                 0.6647

                     34                     35                     36
                      A                      A                      A
 Frequencies --    156.2607               158.2110               159.1377
 Red. masses --     49.9088                43.6510                41.4897
 Frc consts  --      0.7180                 0.6438                 0.6191
 IR Inten    --      0.3853                 0.9817                 0.3978

                     37                     38                     39
                      A                      A                      A
 Frequencies --    164.6894               168.6315               173.9687
 Red. masses --     44.3566                48.5747                50.3801
 Frc consts  --      0.7088                 0.8138                 0.8984
 IR Inten    --      1.5127                 1.8867                 4.9337

                     40                     41                     42
                      A                      A                      A
 Frequencies --    177.7646               187.3237               192.4553
 Red. masses --     50.8402                44.8610                49.8571
 Frc consts  --      0.9466                 0.9275                 1.0880
 IR Inten    --     12.3679                 1.8113                 2.8826

                     43                     44                     45
                      A                      A                      A
 Frequencies --    195.2951               201.5186               205.7953
 Red. masses --     47.6403                39.7851                41.6599
 Frc consts  --      1.0706                 0.9519                 1.0395
 IR Inten    --      4.2406                 1.8706                 3.3249

                     46                     47                     48
                      A                      A                      A
 Frequencies --    209.4253               214.0488               218.7760
 Red. masses --     47.8649                52.2939                49.8791
 Frc consts  --      1.2369                 1.4117                 1.4066
 IR Inten    --      6.0386                 1.3533                 0.7964

                     49                     50                     51
                      A                      A                      A
 Frequencies --    220.3035               222.5705               233.4031
 Red. masses --     42.1896                44.8189                34.5753
 Frc consts  --      1.2064                 1.3081                 1.1098
 IR Inten    --      1.7954                 1.3199                 1.8821

                     52                     53                     54
                      A                      A                      A
 Frequencies --    236.5809               238.0969               252.3521
 Red. masses --     41.8200                36.7940                39.7267
 Frc consts  --      1.3791                 1.2290                 1.4906
 IR Inten    --      2.6240                 0.8868                 0.9589

                     55                     56                     57
                      A                      A                      A
 Frequencies --    258.8014               262.4021               272.2112
 Red. masses --     36.2173                34.2445                35.3085
 Frc consts  --      1.4292                 1.3892                 1.5415
 IR Inten    --      4.2340                 2.2932                 1.5394

                     58                     59                     60
                      A                      A                      A
 Frequencies --    274.3679               275.9282               285.4833
 Red. masses --     35.9365                37.9731                38.9651
 Frc consts  --      1.5939                 1.7034                 1.8711
 IR Inten    --      1.0844                 0.3444                 9.9562

                     61                     62                     63
                      A                      A                      A
 Frequencies --    288.3054               290.9933               296.0437
 Red. masses --     35.4199                37.7175                40.1903
 Frc consts  --      1.7346                 1.8817                 2.0753
 IR Inten    --      1.6306                 2.0648                 5.3895

                     64                     65                     66
                      A                      A                      A
 Frequencies --    298.9812               303.9301               306.0781
 Red. masses --     36.6946                37.4782                39.2568
 Frc consts  --      1.9326                 2.0397                 2.1669
 IR Inten    --      3.0473                 3.6643                 0.2927

                     67                     68                     69
                      A                      A                      A
 Frequencies --    309.6546               312.3714               316.8281
 Red. masses --     38.8637                39.5400                38.5356
 Frc consts  --      2.1956                 2.2732                 2.2791
 IR Inten    --      0.5028                 0.6369                 0.5595

                     70                     71                     72
                      A                      A                      A
 Frequencies --    319.7005               322.9294               333.3467
 Red. masses --     38.4399                39.9239                37.9089
 Frc consts  --      2.3148                 2.4530                 2.4819
 IR Inten    --      1.2753                 2.9935                 0.9375

                     73                     74                     75
                      A                      A                      A
 Frequencies --    340.6622               344.3712               347.5483
 Red. masses --     37.9197                41.8438                38.8741
 Frc consts  --      2.5928                 2.9237                 2.7666
 IR Inten    --      2.2152                 0.7539                 3.6843

                     76                     77                     78
                      A                      A                      A
 Frequencies --    350.7765               359.3271               364.3384
 Red. masses --     36.0765                36.6919                40.5876
 Frc consts  --      2.6154                 2.7913                 3.1743
 IR Inten    --      1.4422                 4.6238                 4.0201

                     79                     80                     81
                      A                      A                      A
 Frequencies --    368.7829               372.7035               406.1451
 Red. masses --     38.4300                37.3519                36.6287
 Frc consts  --      3.0794                 3.0570                 3.5599
 IR Inten    --      0.4866                 1.7822                 4.1662

                     82                     83                     84
                      A                      A                      A
 Frequencies --    408.8555               413.4747               414.8981
 Red. masses --     35.9196                35.7011                37.6250
 Frc consts  --      3.5377                 3.5961                 3.8160
 IR Inten    --      1.3033                 4.2539                 7.6305

                     85                     86                     87
                      A                      A                      A
 Frequencies --    420.2564               425.2605               426.2278
 Red. masses --     34.7302                38.2346                37.1530
 Frc consts  --      3.6140                 4.0740                 3.9767
 IR Inten    --      9.6809                 8.1092                 2.0146

                     88                     89                     90
                      A                      A                      A
 Frequencies --    429.1306               432.6325               436.7912
 Red. masses --     37.1432                37.1886                36.9556
 Frc consts  --      4.0300                 4.1011                 4.1541
 IR Inten    --     11.4650                 3.1683                 0.3900

                     91                     92                     93
                      A                      A                      A
 Frequencies --    443.0569               444.9474               452.5857
 Red. masses --     38.5055                38.6535                38.5371
 Frc consts  --      4.4534                 4.5088                 4.6508
 IR Inten    --      1.7926                 8.0089                 1.9447

                     94                     95                     96
                      A                      A                      A
 Frequencies --    465.7562               466.1628               469.4027
 Red. masses --     39.1364                39.1528                39.5221
 Frc consts  --      5.0021                 5.0129                 5.1308
 IR Inten    --      9.6031                 6.4336                18.3954

                     97                     98                     99
                      A                      A                      A
 Frequencies --    475.3215               477.9027               552.9836
 Red. masses --     39.7294                38.8339                39.6685
 Frc consts  --      5.2886                 5.2256                 7.1469
 IR Inten    --     14.5091                18.3636               102.7020

                    100                    101                    102
                      A                      A                      A
 Frequencies --    553.4889               562.4799               567.2653
 Red. masses --     39.6630                40.0107                39.8324
 Frc consts  --      7.1590                 7.4583                 7.5519
 IR Inten    --    144.8544               235.1644               147.8956

 - Thermochemistry -
 -------------------
 Temperature   298.150 Kelvin.  Pressure   1.00000 Atm.
 Atom     1 has atomic number 42 and mass  97.90550

 Molecular mass:  1942.19572 amu.
 Principal axes and moments of inertia in atomic units:
                           1         2         3
     Eigenvalues --  ******************************
           X           -0.05008   0.98368  -0.17282
           Y           -0.58878   0.11069   0.80067
           Z            0.80674   0.14185   0.57363
 This molecule is an asymmetric top.
 Rotational symmetry number  1.
 Warning -- assumption of classical behavior for rotation
           may cause significant error
 Rotational temperatures (Kelvin)      0.00152     0.00099     0.00065
 Rotational constants (GHZ):           0.03164     0.02072     0.01349
 Zero-point vibrational energy     153179.0 (Joules/Mol)
                                   36.61066 (Kcal/Mol)
 Warning -- explicit consideration of 102 degrees of freedom as
           vibrations may cause significant error
 Vibrational temperatures:     26.74    45.57    57.81    62.99    71.89
          (Kelvin)             73.92    77.63    89.40    96.08   103.23
                              107.52   111.53   115.25   124.62   130.16
                              132.70   135.41   136.47   148.02   151.36
                              162.23   164.89   170.93   176.92   182.40
                              186.73   187.99   191.81   197.39   203.77
                              206.97   213.29   218.08   224.82   227.63
                              228.96   236.95   242.62   250.30   255.76
                              269.52   276.90   280.99   289.94   296.09
                              301.32   307.97   314.77   316.97   320.23
                              335.81   340.39   342.57   363.08   372.36
                              377.54   391.65   394.75   397.00   410.75
                              414.81   418.67   425.94   430.17   437.29
                              440.38   445.52   449.43   455.85   459.98
                              464.62   479.61   490.14   495.47   500.04
                              504.69   516.99   524.20   530.60   536.24
                              584.35   588.25   594.90   596.95   604.66
                              611.86   613.25   617.42   622.46   628.45
                              637.46   640.18   651.17   670.12   670.70
                              675.37   683.88   687.60   795.62   796.35
                              809.28   816.17

 Zero-point correction=                           0.058343 (Hartree/Particle)
 Thermal correction to Energy=                    0.113869
 Thermal correction to Enthalpy=                  0.114813
 Thermal correction to Gibbs Free Energy=        -0.033675
 Sum of electronic and zero-point Energies=         -10368.351703
 Sum of electronic and thermal Energies=            -10368.296177
 Sum of electronic and thermal Enthalpies=          -10368.295232
 Sum of electronic and thermal Free Energies=       -10368.443721

                     E (Thermal)             CV                S
                      KCal/Mol        Cal/Mol-Kelvin    Cal/Mol-Kelvin
 Total                   71.454            181.014            312.520
 Electronic               0.000              0.000              0.000
 Translational            0.889              2.981             48.560
 Rotational               0.889              2.981             41.715
 Vibrational             69.676            175.053            222.244
 Vibration     1          0.593              1.986              6.780
 Vibration     2          0.594              1.983              5.722
 Vibration     3          0.594              1.981              5.250
 Vibration     4          0.595              1.980              5.080
 Vibration     5          0.595              1.978              4.819
 Vibration     6          0.596              1.977              4.764
 Vibration     7          0.596              1.976              4.667
 Vibration     8          0.597              1.972              4.388
 Vibration     9          0.598              1.970              4.246
 Vibration    10          0.598              1.967              4.105
 Vibration    11          0.599              1.966              4.025
 Vibration    12          0.599              1.964              3.953
 Vibration    13          0.600              1.963              3.888
 Vibration    14          0.601              1.959              3.735
 Vibration    15          0.602              1.956              3.650
 Vibration    16          0.602              1.955              3.612
 Vibration    17          0.603              1.953              3.573
 Vibration    18          0.603              1.953              3.557
 Vibration    19          0.605              1.947              3.399
 Vibration    20          0.605              1.945              3.356
 Vibration    21          0.607              1.939              3.221
 Vibration    22          0.608              1.937              3.189
 Vibration    23          0.609              1.934              3.120
 Vibration    24          0.610              1.930              3.053
 Vibration    25          0.611              1.926              2.994
 Vibration    26          0.612              1.924              2.949
 Vibration    27          0.612              1.923              2.936
 Vibration    28          0.613              1.920              2.898
 Vibration    29          0.614              1.916              2.843
 Vibration    30          0.615              1.912              2.782
 Vibration    31          0.616              1.909              2.752
 Vibration    32          0.618              1.905              2.695
 Vibration    33          0.619              1.901              2.652
 Vibration    34          0.620              1.896              2.595
 Vibration    35          0.621              1.893              2.571
 Vibration    36          0.621              1.892              2.560
 Vibration    37          0.623              1.886              2.495
 Vibration    38          0.625              1.881              2.451
 Vibration    39          0.627              1.874              2.392
 Vibration    40          0.628              1.870              2.352
 Vibration    41          0.632              1.857              2.254
 Vibration    42          0.634              1.850              2.204
 Vibration    43          0.636              1.846              2.177
 Vibration    44          0.638              1.838              2.119
 Vibration    45          0.640              1.832              2.081
 Vibration    46          0.642              1.826              2.049
 Vibration    47          0.644              1.820              2.009
 Vibration    48          0.647              1.812              1.969
 Vibration    49          0.647              1.810              1.957
 Vibration    50          0.648              1.807              1.938
 Vibration    51          0.654              1.790              1.853
 Vibration    52          0.655              1.785              1.828
 Vibration    53          0.656              1.782              1.817
 Vibration    54          0.664              1.759              1.714
 Vibration    55          0.668              1.748              1.670
 Vibration    56          0.670              1.742              1.646
 Vibration    57          0.675              1.725              1.582
 Vibration    58          0.677              1.721              1.569
 Vibration    59          0.678              1.718              1.559
 Vibration    60          0.683              1.701              1.501
 Vibration    61          0.685              1.695              1.484
 Vibration    62          0.687              1.690              1.468
 Vibration    63          0.690              1.681              1.439
 Vibration    64          0.692              1.676              1.423
 Vibration    65          0.695              1.666              1.395
 Vibration    66          0.696              1.662              1.383
 Vibration    67          0.699              1.655              1.364
 Vibration    68          0.701              1.650              1.350
 Vibration    69          0.704              1.641              1.326
 Vibration    70          0.706              1.636              1.312
 Vibration    71          0.708              1.630              1.295
 Vibration    72          0.715              1.609              1.244
 Vibration    73          0.720              1.594              1.209
 Vibration    74          0.723              1.587              1.192
 Vibration    75          0.725              1.580              1.177
 Vibration    76          0.728              1.574              1.163
 Vibration    77          0.734              1.556              1.125
 Vibration    78          0.738              1.546              1.104
 Vibration    79          0.741              1.536              1.085
 Vibration    80          0.744              1.528              1.069
 Vibration    81          0.771              1.457              0.940
 Vibration    82          0.773              1.451              0.931
 Vibration    83          0.777              1.441              0.914
 Vibration    84          0.778              1.438              0.909
 Vibration    85          0.783              1.426              0.891
 Vibration    86          0.787              1.415              0.874
 Vibration    87          0.788              1.413              0.871
 Vibration    88          0.790              1.407              0.861
 Vibration    89          0.794              1.399              0.850
 Vibration    90          0.797              1.390              0.837
 Vibration    91          0.803              1.376              0.817
 Vibration    92          0.804              1.372              0.811
 Vibration    93          0.811              1.355              0.788
 Vibration    94          0.823              1.326              0.750
 Vibration    95          0.824              1.325              0.748
 Vibration    96          0.827              1.318              0.739
 Vibration    97          0.832              1.305              0.723
 Vibration    98          0.834              1.299              0.716
 Vibration    99          0.908              1.133              0.538
 Vibration   100          0.909              1.132              0.537
 Vibration   101          0.918              1.112              0.519
 Vibration   102          0.923              1.102              0.510

                           ! Non-Optimized Parameters !
 Normal termination of Gaussian 16 at Mon Dec 19 13:35:38 2022.
