 Gaussian 16, Revision C.01,
 Gaussian 16:  ES64L-G16RevC.01  3-Jul-2019

 ---------------------------------------
 # opt freq b3lyp/gen nosymm pseudo=read
 ---------------------------------------

 -------------------
 Title Card Required
 -------------------
 Symbolic Z-matrix:
 Charge =  0 Multiplicity = 1

 SCF Done:  E(RB3LYP) =  -10767.8293668     A.U. after   39 cycles
 SCF Done:  E(RB3LYP) =  -10767.8327697     A.U. after   22 cycles
 SCF Done:  E(RB3LYP) =  -10767.8352860     A.U. after   23 cycles
 SCF Done:  E(RB3LYP) =  -10767.8361895     A.U. after   21 cycles
 SCF Done:  E(RB3LYP) =  -10767.8366670     A.U. after   22 cycles
 SCF Done:  E(RB3LYP) =  -10767.8368599     A.U. after   21 cycles
 SCF Done:  E(RB3LYP) =  -10767.8369790     A.U. after   20 cycles
 SCF Done:  E(RB3LYP) =  -10767.8370398     A.U. after   19 cycles
 SCF Done:  E(RB3LYP) =  -10767.8370608     A.U. after   18 cycles
 SCF Done:  E(RB3LYP) =  -10767.8370664     A.U. after   16 cycles
 SCF Done:  E(RB3LYP) =  -10767.8370700     A.U. after   16 cycles
 SCF Done:  E(RB3LYP) =  -10767.8370712     A.U. after   15 cycles
 SCF Done:  E(RB3LYP) =  -10767.8370722     A.U. after   14 cycles
 SCF Done:  E(RB3LYP) =  -10767.8370727     A.U. after   14 cycles
 SCF Done:  E(RB3LYP) =  -10767.8370730     A.U. after   13 cycles
 SCF Done:  E(RB3LYP) =  -10767.8370731     A.U. after   13 cycles
 SCF Done:  E(RB3LYP) =  -10767.8370732     A.U. after   11 cycles
 Optimization completed.
    -- Stationary point found.
 Normal termination of Gaussian 16 at Fri Dec 23 17:32:55 2022.

 ------------------------------------------------------------------
 #N Geom=AllCheck Guess=TCheck SCRF=Check GenChk RB3LYP/ChkBas Freq
 ------------------------------------------------------------------

 Structure from the checkpoint file:  "/localscratch/chegho/Gau-81449.chk"
 -------------------
 Title Card Required
 -------------------
 Charge =  0 Multiplicity = 1

                          Input orientation:
 ---------------------------------------------------------------------
 Center     Atomic      Atomic             Coordinates (Angstroms)
 Number     Number       Type             X           Y           Z
 ---------------------------------------------------------------------
      1         42           0        0.120248    1.583469   12.279345
      2         16           0        1.071023    3.737678   12.454282
      3         16           0       -2.117396    2.036312   12.858558
      4         16           0       -0.213401    0.959943   10.004624
      5         16           0        2.096420    0.023673   11.976587
      6         42           0       -2.050285    2.375279   10.523158
      7         16           0       -2.477821    1.750070    8.159151
      8         16           0       -1.328186    4.571383   10.520101
      9         42           0        0.790302    3.192790   10.098281
     10         16           0        0.354500    3.281559    7.477549
     11         16           0        2.822220    1.978207    9.452782
     12         42           0        2.885839    2.407679   11.802457
     13         42           0       -1.765281    4.095033    8.276546
     14         16           0        3.781040    2.236570   14.189845
     15         16           0        4.552228    4.117876   11.709447
     16         16           0       -3.785765    5.155532    7.784314
     17         16           0       -0.585797    6.359459    7.833161
     18         42           0       -4.350844    3.030869    8.595305
     19         16           0       -5.932806    2.250427    7.397215
     20         16           0       -4.560692    2.898577   10.810247
     21         42           0        2.327977    0.549340   14.211011
     22         16           0        3.023224   -1.074049   15.387160
     23         16           0        0.318180    1.251860   14.830481
     24         42           0        1.633025    5.465227    7.169910
     25         16           0        1.422706    4.874802    4.853360
     26         16           0        1.702544    5.532238    9.794778
     27         42           0        3.527656    4.251441    9.653301
     28         16           0        3.677328    4.045746    7.179840
     29         16           0        5.157432    6.288606    9.362007
     30         42           0        4.366598    6.280998    7.300568
     31         16           0        5.781930    6.632196    5.767645
     32         16           0        2.517570    7.822804    7.134251
     33         42           0        1.707328    7.218492    4.955682
     34         16           0        2.874812    7.700944    3.243821
     35         16           0       -0.451919    8.084441    4.849396
     36         42           0       -0.610039    5.925361    5.585811
     37         16           0       -1.853611    4.226733    4.045429
     38          1           0       -3.044304    4.843888    3.871652
     39          1           0       -1.372507    4.585017    2.834910
 ---------------------------------------------------------------------

 SCF Done:  E(RB3LYP) =  -10767.8370732     A.U. after    3 cycles

 Alpha  occ. eigenvalues --  -88.99028 -88.93159 -88.93066 -88.92353 -88.92334
 Alpha  occ. eigenvalues --  -88.91868 -88.91570 -88.91290 -88.91228 -88.91203
 Alpha  occ. eigenvalues --  -88.91126 -88.91096 -88.90608 -88.89702 -88.89520
 Alpha  occ. eigenvalues --  -88.89333 -88.88951 -88.88600 -88.88572 -88.88504
 Alpha  occ. eigenvalues --  -88.88299 -88.87985 -88.87923 -88.87112 -88.87066
 Alpha  occ. eigenvalues --   -8.06675  -8.00622  -8.00465  -8.00151  -7.99813
 Alpha  occ. eigenvalues --   -7.99371  -7.99038  -7.98744  -7.98701  -7.98631
 Alpha  occ. eigenvalues --   -7.98526  -7.98525  -7.98127  -7.97373  -7.97281
 Alpha  occ. eigenvalues --   -7.96658  -7.96552  -7.96451  -7.96351  -7.96318
 Alpha  occ. eigenvalues --   -7.95833  -7.95720  -7.95666  -7.94972  -7.94966
 Alpha  occ. eigenvalues --   -6.02972  -6.02691  -6.02237  -5.96659  -5.96595
 Alpha  occ. eigenvalues --   -5.96516  -5.96505  -5.96430  -5.96373  -5.96135
 Alpha  occ. eigenvalues --   -5.96099  -5.96049  -5.95852  -5.95820  -5.95671
 Alpha  occ. eigenvalues --   -5.95433  -5.95363  -5.95220  -5.95075  -5.95025
 Alpha  occ. eigenvalues --   -5.94918  -5.94787  -5.94737  -5.94701  -5.94679
 Alpha  occ. eigenvalues --   -5.94643  -5.94626  -5.94619  -5.94598  -5.94584
 Alpha  occ. eigenvalues --   -5.94583  -5.94575  -5.94512  -5.94500  -5.94398
 Alpha  occ. eigenvalues --   -5.94391  -5.94149  -5.94114  -5.94012  -5.93422
 Alpha  occ. eigenvalues --   -5.93341  -5.93321  -5.93245  -5.93242  -5.93101
 Alpha  occ. eigenvalues --   -5.92801  -5.92655  -5.92653  -5.92485  -5.92471
 Alpha  occ. eigenvalues --   -5.92444  -5.92429  -5.92400  -5.92398  -5.92394
 Alpha  occ. eigenvalues --   -5.92287  -5.92278  -5.92277  -5.92199  -5.92131
 Alpha  occ. eigenvalues --   -5.91943  -5.91839  -5.91779  -5.91769  -5.91676
 Alpha  occ. eigenvalues --   -5.91669  -5.91618  -5.91499  -5.91446  -5.91031
 Alpha  occ. eigenvalues --   -5.90950  -5.90921  -5.90905  -5.90852  -5.90788
 Alpha  occ. eigenvalues --   -2.57390  -2.56865  -2.56646  -2.56305  -2.56290
 Alpha  occ. eigenvalues --   -2.55988  -2.55400  -2.54773  -2.54592  -2.54002
 Alpha  occ. eigenvalues --   -2.53832  -2.53517  -1.60906  -1.60229  -1.59901
 Alpha  occ. eigenvalues --   -1.59768  -1.59351  -1.59263  -1.59042  -1.59002
 Alpha  occ. eigenvalues --   -1.58954  -1.58768  -1.58716  -1.58671  -1.58610
 Alpha  occ. eigenvalues --   -1.58571  -1.58366  -1.58234  -1.58063  -1.58010
 Alpha  occ. eigenvalues --   -1.57901  -1.57658  -1.57535  -1.57440  -1.57141
 Alpha  occ. eigenvalues --   -1.56970  -1.56896  -1.56528  -1.56458  -1.56204
 Alpha  occ. eigenvalues --   -1.56069  -1.55952  -1.55734  -1.55686  -1.55536
 Alpha  occ. eigenvalues --   -1.55433  -1.55381  -1.54924  -0.86018  -0.77653
 Alpha  occ. eigenvalues --   -0.76337  -0.75334  -0.75124  -0.75099  -0.74754
 Alpha  occ. eigenvalues --   -0.74376  -0.73849  -0.73719  -0.73480  -0.73032
 Alpha  occ. eigenvalues --   -0.72780  -0.72317  -0.71867  -0.71239  -0.71072
 Alpha  occ. eigenvalues --   -0.70815  -0.70646  -0.70060  -0.69908  -0.69698
 Alpha  occ. eigenvalues --   -0.69383  -0.68410  -0.68294  -0.55444  -0.49047
 Alpha  occ. eigenvalues --   -0.44944  -0.44881  -0.44291  -0.43451  -0.43333
 Alpha  occ. eigenvalues --   -0.43133  -0.42864  -0.42388  -0.41965  -0.41691
 Alpha  occ. eigenvalues --   -0.41472  -0.41217  -0.41100  -0.40756  -0.40570
 Alpha  occ. eigenvalues --   -0.40354  -0.40061  -0.39993  -0.39944  -0.39567
 Alpha  occ. eigenvalues --   -0.39410  -0.39038  -0.38912  -0.38770  -0.38593
 Alpha  occ. eigenvalues --   -0.38318  -0.38031  -0.37819  -0.37673  -0.37334
 Alpha  occ. eigenvalues --   -0.37230  -0.37144  -0.37006  -0.36804  -0.36772
 Alpha  occ. eigenvalues --   -0.36556  -0.36174  -0.35849  -0.35727  -0.35620
 Alpha  occ. eigenvalues --   -0.35476  -0.35371  -0.35078  -0.34884  -0.34732
 Alpha  occ. eigenvalues --   -0.34642  -0.34543  -0.34322  -0.34234  -0.34027
 Alpha  occ. eigenvalues --   -0.33777  -0.33661  -0.33100  -0.32936  -0.32497
 Alpha  occ. eigenvalues --   -0.32362  -0.31856  -0.31805  -0.31617  -0.31472
 Alpha  occ. eigenvalues --   -0.31423  -0.31049  -0.30944  -0.30591  -0.30332
 Alpha  occ. eigenvalues --   -0.30031  -0.29627  -0.29429  -0.29129  -0.28901
 Alpha  occ. eigenvalues --   -0.28556  -0.28443  -0.28021  -0.27910  -0.27647
 Alpha  occ. eigenvalues --   -0.27270  -0.26493  -0.26103  -0.25817  -0.25376
 Alpha  occ. eigenvalues --   -0.24974  -0.24563  -0.24070  -0.23781  -0.22650
 Alpha virt. eigenvalues --   -0.17783  -0.17666  -0.16970  -0.16388  -0.15915
 Alpha virt. eigenvalues --   -0.15335  -0.15071  -0.14541  -0.14290  -0.13806
 Alpha virt. eigenvalues --   -0.13568  -0.13304  -0.13201  -0.13041  -0.12745

 Mulliken charges:
               1
     1  Mo  -0.260696
     2  S    0.383327
     3  S    0.045992
     4  S    0.203657
     5  S    0.067795
     6  Mo  -0.206223
     7  S    0.162776
     8  S    0.256386
     9  Mo  -0.695219
    10  S    0.156431
    11  S    0.208936
    12  Mo  -0.253262
    13  Mo  -0.263432
    14  S   -0.031361
    15  S    0.051745
    16  S   -0.041138
    17  S    0.173620
    18  Mo   0.192081
    19  S   -0.245120
    20  S   -0.038797
    21  Mo   0.281740
    22  S   -0.206326
    23  S   -0.030465
    24  Mo  -0.717309
    25  S    0.244654
    26  S    0.179830
    27  Mo  -0.091853
    28  S    0.132705
    29  S   -0.029488
    30  Mo   0.252545
    31  S   -0.179755
    32  S    0.072888
    33  Mo   0.205979
    34  S   -0.215829
    35  S    0.016124
    36  Mo  -0.158150
    37  S    0.068479
    38  H    0.150057
    39  H    0.156676
 Sum of Mulliken charges =  -0.00000

 Dipole moment (field-independent basis, Debye):
    X=             -2.8470    Y=              2.5274    Z=            -10.5181  Tot=             11.1858
 Quadrupole moment (field-independent basis, Debye-Ang):
   XX=           -630.4722   YY=           -594.7731   ZZ=           -778.2647
   XY=            -23.3168   XZ=             -8.0977   YZ=            -11.7558

  Exact polarizability:    1214.078     114.742     874.001      83.339    -441.914    1248.635
 Approx polarizability:    4019.583     364.450    2675.989     147.071   -1000.198    3654.646

                      1                      2                      3
                      A                      A                      A
 Frequencies --     20.8099                28.7658                37.9359
 Red. masses --     29.0371                17.2874                28.0603
 Frc consts  --      0.0074                 0.0084                 0.0238
 IR Inten    --      0.7114                 3.7105                 0.3205

                      4                      5                      6
                      A                      A                      A
 Frequencies --     43.4970                46.1399                48.5957
 Red. masses --     34.6390                14.7098                31.8585
 Frc consts  --      0.0386                 0.0185                 0.0443
 IR Inten    --      0.7231                 0.9953                 0.3662

                      7                      8                      9
                      A                      A                      A
 Frequencies --     53.2550                54.8649                59.0984
 Red. masses --     33.5327                36.2078                28.5041
 Frc consts  --      0.0560                 0.0642                 0.0587
 IR Inten    --      0.3404                 0.4819                 1.0298

                     10                     11                     12
                      A                      A                      A
 Frequencies --     65.6289                69.6726                74.4826
 Red. masses --     35.7189                40.8608                19.5518
 Frc consts  --      0.0906                 0.1169                 0.0639
 IR Inten    --      0.0623                 0.4457                 0.9680

                     13                     14                     15
                      A                      A                      A
 Frequencies --     78.0976                79.4253                81.9812
 Red. masses --     32.8242                30.7558                20.2546
 Frc consts  --      0.1180                 0.1143                 0.0802
 IR Inten    --      0.5879                 0.9795                 1.0368

                     16                     17                     18
                      A                      A                      A
 Frequencies --     88.7369                91.4487                92.6920
 Red. masses --     38.6167                32.1053                37.9600
 Frc consts  --      0.1792                 0.1582                 0.1922
 IR Inten    --      1.9356                 0.1046                 1.3300

                     19                     20                     21
                      A                      A                      A
 Frequencies --     95.2866                97.0925               106.6707
 Red. masses --     38.8483                42.2102                34.9787
 Frc consts  --      0.2078                 0.2344                 0.2345
 IR Inten    --      1.3666                 0.0822                 0.9601

                     22                     23                     24
                      A                      A                      A
 Frequencies --    109.2012               116.1797               116.9311
 Red. masses --     38.5383                33.3636                37.4760
 Frc consts  --      0.2708                 0.2653                 0.3019
 IR Inten    --      0.7884                 0.8595                 1.7284

                     25                     26                     27
                      A                      A                      A
 Frequencies --    123.4856               125.7356               128.2868
 Red. masses --     43.8967                32.2343                45.4953
 Frc consts  --      0.3944                 0.3003                 0.4411
 IR Inten    --      0.4834                 0.7641                 0.0005

                     28                     29                     30
                      A                      A                      A
 Frequencies --    130.0073               131.9301               134.4456
 Red. masses --     31.5858                34.2628                33.1364
 Frc consts  --      0.3145                 0.3514                 0.3529
 IR Inten    --      0.8035                 1.8215                 0.2584

                     31                     32                     33
                      A                      A                      A
 Frequencies --    137.9609               143.2617               144.9764
 Red. masses --     10.5437                26.4828                17.1156
 Frc consts  --      0.1182                 0.3202                 0.2120
 IR Inten    --      2.1501                 0.7350                 2.1620

                     34                     35                     36
                      A                      A                      A
 Frequencies --    148.8550               150.4513               153.9320
 Red. masses --      1.5350                15.4791                15.8535
 Frc consts  --      0.0200                 0.2064                 0.2213
 IR Inten    --      5.9124                 1.2296                 0.2952

                     37                     38                     39
                      A                      A                      A
 Frequencies --    155.5669               158.8546               159.9339
 Red. masses --     36.1890                39.9569                32.0310
 Frc consts  --      0.5160                 0.5941                 0.4827
 IR Inten    --      2.2841                 0.7497                 0.2987

                     40                     41                     42
                      A                      A                      A
 Frequencies --    165.3105               172.7915               181.6537
 Red. masses --     43.8319                50.6116                42.3677
 Frc consts  --      0.7057                 0.8903                 0.8237
 IR Inten    --      2.3577                 4.3181                 4.2515

                     43                     44                     45
                      A                      A                      A
 Frequencies --    184.1227               187.4695               191.1494
 Red. masses --     46.1899                27.7883                36.6989
 Frc consts  --      0.9226                 0.5754                 0.7900
 IR Inten    --      6.1671                 0.2743                 0.4144

                     46                     47                     48
                      A                      A                      A
 Frequencies --    194.4174               201.0990               202.0260
 Red. masses --     43.5424                36.7665                42.4304
 Frc consts  --      0.9697                 0.8760                 1.0203
 IR Inten    --      2.8056                 1.8493                 7.0829

                     49                     50                     51
                      A                      A                      A
 Frequencies --    207.9299               213.1163               217.4440
 Red. masses --     37.6841                43.0206                49.3270
 Frc consts  --      0.9599                 1.1512                 1.3741
 IR Inten    --      1.1261                 3.0765                 2.6249

                     52                     53                     54
                      A                      A                      A
 Frequencies --    222.1840               224.2205               230.0255
 Red. masses --     38.0273                43.3917                34.3512
 Frc consts  --      1.1060                 1.2853                 1.0709
 IR Inten    --      1.9349                 1.5235                 0.2105

                     55                     56                     57
                      A                      A                      A
 Frequencies --    233.4029               236.8875               242.6491
 Red. masses --     40.6403                37.7225                38.8754
 Frc consts  --      1.3044                 1.2472                 1.3486
 IR Inten    --      0.5245                 2.6441                 1.6899

                     58                     59                     60
                      A                      A                      A
 Frequencies --    251.2553               257.8186               261.6003
 Red. masses --     39.8557                35.3400                34.0102
 Frc consts  --      1.4824                 1.3840                 1.3713
 IR Inten    --      1.1287                 3.9483                 3.6834

                     61                     62                     63
                      A                      A                      A
 Frequencies --    272.2492               274.8291               276.4286
 Red. masses --     36.5185                34.1620                39.1966
 Frc consts  --      1.5948                 1.5203                 1.7647
 IR Inten    --      1.5100                 0.5456                 0.7884

                     64                     65                     66
                      A                      A                      A
 Frequencies --    286.1766               288.9451               294.8499
 Red. masses --     35.3253                36.9264                40.7629
 Frc consts  --      1.7045                 1.8164                 2.0879
 IR Inten    --      0.1838                 0.1167                 8.2996

                     67                     68                     69
                      A                      A                      A
 Frequencies --    296.2946               299.5891               301.9449
 Red. masses --     36.6291                35.9475                37.5641
 Frc consts  --      1.8946                 1.9010                 2.0178
 IR Inten    --      8.8223                 0.4770                 1.9409

                     70                     71                     72
                      A                      A                      A
 Frequencies --    303.4794               309.4465               313.3997
 Red. masses --     38.1157                37.9679                39.6722
 Frc consts  --      2.0683                 2.1421                 2.2958
 IR Inten    --      0.8888                 1.7760                 1.6868

                     73                     74                     75
                      A                      A                      A
 Frequencies --    316.8810               322.1209               326.5635
 Red. masses --     36.8780                40.0060                37.3799
 Frc consts  --      2.1818                 2.4458                 2.3487
 IR Inten    --      0.7216                 3.7349                 2.0940

                     76                     77                     78
                      A                      A                      A
 Frequencies --    335.8017               339.8825               347.3504
 Red. masses --     37.6455                37.8450                40.6788
 Frc consts  --      2.5011                 2.5758                 2.8917
 IR Inten    --      0.6135                 1.8540                 0.7724

                     79                     80                     81
                      A                      A                      A
 Frequencies --    348.5899               353.0287               362.7172
 Red. masses --     39.6186                35.9417                37.5908
 Frc consts  --      2.8365                 2.6392                 2.9139
 IR Inten    --      3.7003                 0.8412                 5.0953

                     82                     83                     84
                      A                      A                      A
 Frequencies --    365.8304               373.0071               376.5772
 Red. masses --     39.1597                36.4193                37.7164
 Frc consts  --      3.0878                 2.9855                 3.1513
 IR Inten    --      5.4407                 2.4727                 0.3812

                     85                     86                     87
                      A                      A                      A
 Frequencies --    405.7631               408.5710               411.9994
 Red. masses --     35.9737                34.6953                34.9599
 Frc consts  --      3.4896                 3.4124                 3.4963
 IR Inten    --      6.5996                 1.5818                 5.2656

                     88                     89                     90
                      A                      A                      A
 Frequencies --    414.5917               417.2641               419.3168
 Red. masses --     37.6374                31.5358                25.3831
 Frc consts  --      3.8116                 3.2350                 2.6295
 IR Inten    --      6.4547                 9.3986                13.3927

                     91                     92                     93
                      A                      A                      A
 Frequencies --    425.3761               430.8634               432.3135
 Red. masses --     37.1464                33.1729                29.2545
 Frc consts  --      3.9602                 3.6284                 3.2214
 IR Inten    --      0.9170                 6.9479                11.5321

                     94                     95                     96
                      A                      A                      A
 Frequencies --    436.1784               443.8556               448.9527
 Red. masses --     36.4091                36.3876                14.5833
 Frc consts  --      4.0812                 4.2236                 1.7318
 IR Inten    --      0.4204                 0.4641                 8.0660

                     97                     98                     99
                      A                      A                      A
 Frequencies --    452.3316               465.7354               466.3911
 Red. masses --     37.8851                38.3638                36.0941
 Frc consts  --      4.5670                 4.9029                 4.6258
 IR Inten    --      2.8020                 6.0873                 7.8407

                    100                    101                    102
                      A                      A                      A
 Frequencies --    470.4759               475.1055               476.4587
 Red. masses --     35.3341                39.3301                37.9222
 Frc consts  --      4.6081                 5.2306                 5.0722
 IR Inten    --     25.4311                16.4047                15.0095

                    103                    104                    105
                      A                      A                      A
 Frequencies --    483.3661               547.9644               548.4768
 Red. masses --      1.1708                39.3265                35.7660
 Frc consts  --      0.1612                 6.9573                 6.3392
 IR Inten    --      9.3647               113.6101               140.5461

                    106                    107                    108
                      A                      A                      A
 Frequencies --    561.1884               565.5016               574.4125
 Red. masses --     40.0111                38.6465                 1.0727
 Frc consts  --      7.4242                 7.2816                 0.2085
 IR Inten    --    242.9726               138.3306                 6.4760

                    109                    110                    111
                      A                      A                      A
 Frequencies --   1209.6043              2659.5153              2678.4591
 Red. masses --      1.0392                 1.0350                 1.0404
 Frc consts  --      0.8958                 4.3131                 4.3977
 IR Inten    --      4.0490                 6.3444                 3.4270

 - Thermochemistry -
 -------------------
 Temperature   298.150 Kelvin.  Pressure   1.00000 Atm.
 Atom     1 has atomic number 42 and mass  97.90550

 Molecular mass:  1976.18345 amu.
 Principal axes and moments of inertia in atomic units:
                           1         2         3
     Eigenvalues --  ******************************
           X           -0.02002   0.97836  -0.20594
           Y           -0.56933   0.15816   0.80675
           Z            0.82186   0.13340   0.55385
 This molecule is an asymmetric top.
 Rotational symmetry number  1.
 Warning -- assumption of classical behavior for rotation
           may cause significant error
 Rotational temperatures (Kelvin)      0.00148     0.00095     0.00063
 Rotational constants (GHZ):           0.03080     0.01979     0.01304
 Zero-point vibrational energy     202041.9 (Joules/Mol)
                                   48.28917 (Kcal/Mol)
 Warning -- explicit consideration of 108 degrees of freedom as
           vibrations may cause significant error
 Vibrational temperatures:     29.94    41.39    54.58    62.58    66.38
          (Kelvin)             69.92    76.62    78.94    85.03    94.43
                              100.24   107.16   112.37   114.28   117.95
                              127.67   131.57   133.36   137.10   139.69
                              153.48   157.12   167.16   168.24   177.67
                              180.91   184.58   187.05   189.82   193.44
                              198.49   206.12   208.59   214.17   216.47
                              221.47   223.83   228.56   230.11   237.84
                              248.61   261.36   264.91   269.73   275.02
                              279.72   289.34   290.67   299.16   306.63
                              312.85   319.67   322.60   330.96   335.81
                              340.83   349.12   361.50   370.94   376.38
                              391.71   395.42   397.72   411.74   415.73
                              424.22   426.30   431.04   434.43   436.64
                              445.22   450.91   455.92   463.46   469.85
                              483.14   489.02   499.76   501.54   507.93
                              521.87   526.35   536.67   541.81   583.80
                              587.84   592.78   596.50   600.35   603.30
                              612.02   619.92   622.00   627.56   638.61
                              645.94   650.80   670.09   671.03   676.91
                              683.57   685.52   695.46   788.40   789.14
                              807.42   813.63   826.45  1740.35  3826.45
                             3853.71

 Zero-point correction=                           0.076954 (Hartree/Particle)
 Thermal correction to Energy=                    0.135580
 Thermal correction to Enthalpy=                  0.136524
 Thermal correction to Gibbs Free Energy=        -0.018663
 Sum of electronic and zero-point Energies=         -10767.760119
 Sum of electronic and thermal Energies=            -10767.701494
 Sum of electronic and thermal Enthalpies=          -10767.700549
 Sum of electronic and thermal Free Energies=       -10767.855736

                     E (Thermal)             CV                S
                      KCal/Mol        Cal/Mol-Kelvin    Cal/Mol-Kelvin
 Total                   85.077            191.160            326.617
 Electronic               0.000              0.000              0.000
 Translational            0.889              2.981             48.612
 Rotational               0.889              2.981             41.821
 Vibrational             83.300            185.199            236.185
 Vibration     1          0.593              1.986              6.555
 Vibration     2          0.593              1.984              5.913
 Vibration     3          0.594              1.982              5.364
 Vibration     4          0.595              1.980              5.093
 Vibration     5          0.595              1.979              4.976
 Vibration     6          0.595              1.978              4.874
 Vibration     7          0.596              1.976              4.693
 Vibration     8          0.596              1.976              4.634
 Vibration     9          0.596              1.974              4.487
 Vibration    10          0.597              1.971              4.280
 Vibration    11          0.598              1.969              4.163
 Vibration    12          0.599              1.966              4.031
 Vibration    13          0.599              1.964              3.938
 Vibration    14          0.600              1.963              3.905
 Vibration    15          0.600              1.961              3.843
 Vibration    16          0.602              1.957              3.688
 Vibration    17          0.602              1.955              3.629
 Vibration    18          0.602              1.954              3.602
 Vibration    19          0.603              1.953              3.549
 Vibration    20          0.603              1.951              3.512
 Vibration    21          0.606              1.944              3.329
 Vibration    22          0.606              1.942              3.283
 Vibration    23          0.608              1.936              3.163
 Vibration    24          0.608              1.935              3.150
 Vibration    25          0.610              1.929              3.045
 Vibration    26          0.611              1.927              3.010
 Vibration    27          0.611              1.925              2.972
 Vibration    28          0.612              1.923              2.946
 Vibration    29          0.612              1.921              2.918
 Vibration    30          0.613              1.919              2.881
 Vibration    31          0.614              1.915              2.832
 Vibration    32          0.616              1.910              2.760
 Vibration    33          0.616              1.908              2.737
 Vibration    34          0.618              1.904              2.687
 Vibration    35          0.618              1.902              2.667
 Vibration    36          0.619              1.898              2.623
 Vibration    37          0.620              1.896              2.603
 Vibration    38          0.621              1.893              2.563
 Vibration    39          0.622              1.891              2.551
 Vibration    40          0.624              1.885              2.488
 Vibration    41          0.626              1.876              2.405
 Vibration    42          0.630              1.865              2.311
 Vibration    43          0.631              1.861              2.286
 Vibration    44          0.632              1.857              2.253
 Vibration    45          0.634              1.852              2.217
 Vibration    46          0.635              1.848              2.185
 Vibration    47          0.638              1.838              2.123
 Vibration    48          0.639              1.837              2.115
 Vibration    49          0.641              1.829              2.062
 Vibration    50          0.644              1.821              2.017
 Vibration    51          0.646              1.814              1.980
 Vibration    52          0.648              1.807              1.941
 Vibration    53          0.649              1.804              1.925
 Vibration    54          0.652              1.795              1.879
 Vibration    55          0.654              1.790              1.853
 Vibration    56          0.656              1.784              1.826
 Vibration    57          0.659              1.775              1.783
 Vibration    58          0.663              1.761              1.722
 Vibration    59          0.667              1.750              1.676
 Vibration    60          0.669              1.743              1.651
 Vibration    61          0.675              1.724              1.582
 Vibration    62          0.677              1.720              1.566
 Vibration    63          0.678              1.717              1.556
 Vibration    64          0.684              1.699              1.496
 Vibration    65          0.686              1.694              1.480
 Vibration    66          0.689              1.683              1.446
 Vibration    67          0.690              1.681              1.438
 Vibration    68          0.692              1.674              1.419
 Vibration    69          0.694              1.670              1.406
 Vibration    70          0.695              1.667              1.398
 Vibration    71          0.699              1.656              1.365
 Vibration    72          0.701              1.648              1.344
 Vibration    73          0.704              1.641              1.326
 Vibration    74          0.707              1.631              1.299
 Vibration    75          0.710              1.622              1.277
 Vibration    76          0.717              1.604              1.232
 Vibration    77          0.720              1.596              1.213
 Vibration    78          0.725              1.581              1.178
 Vibration    79          0.726              1.578              1.173
 Vibration    80          0.729              1.569              1.153
 Vibration    81          0.737              1.549              1.110
 Vibration    82          0.739              1.543              1.097
 Vibration    83          0.744              1.528              1.067
 Vibration    84          0.747              1.520              1.053
 Vibration    85          0.771              1.458              0.942
 Vibration    86          0.773              1.452              0.932
 Vibration    87          0.776              1.444              0.920
 Vibration    88          0.778              1.439              0.911
 Vibration    89          0.780              1.433              0.901
 Vibration    90          0.782              1.428              0.894
 Vibration    91          0.787              1.415              0.874
 Vibration    92          0.792              1.403              0.856
 Vibration    93          0.793              1.400              0.851
 Vibration    94          0.797              1.391              0.839
 Vibration    95          0.803              1.374              0.815
 Vibration    96          0.808              1.363              0.799
 Vibration    97          0.811              1.356              0.789
 Vibration    98          0.823              1.326              0.750
 Vibration    99          0.824              1.325              0.748
 Vibration   100          0.827              1.316              0.736
 Vibration   101          0.832              1.305              0.723
 Vibration   102          0.833              1.302              0.720
 Vibration   103          0.840              1.287              0.701
 Vibration   104          0.903              1.144              0.548
 Vibration   105          0.904              1.143              0.547
 Vibration   106          0.917              1.115              0.521
 Vibration   107          0.921              1.106              0.513
 Vibration   108          0.931              1.087              0.496

                           ! Non-Optimized Parameters !
 Normal termination of Gaussian 16 at Fri Dec 23 18:01:35 2022.
