 Gaussian 16, Revision C.01,
 Gaussian 16:  ES64L-G16RevC.01  3-Jul-2019

 ---------------------------------------
 # opt freq b3lyp/gen nosymm pseudo=read
 ---------------------------------------

 -------------------
 Title Card Required
 -------------------
 Symbolic Z-matrix:
 Charge =  0 Multiplicity = 1

 SCF Done:  E(RB3LYP) =  -11166.0151855     A.U. after   40 cycles
 SCF Done:  E(RB3LYP) =  -11166.0306280     A.U. after   24 cycles
 SCF Done:  E(RB3LYP) =  -11166.0332252     A.U. after   25 cycles
 SCF Done:  E(RB3LYP) =  -11166.0330581     A.U. after   23 cycles
 SCF Done:  E(RB3LYP) =  -11166.0366402     A.U. after   23 cycles
 SCF Done:  E(RB3LYP) =  -11166.0368272     A.U. after   24 cycles
 SCF Done:  E(RB3LYP) =  -11166.0386256     A.U. after   22 cycles
 SCF Done:  E(RB3LYP) =  -11166.0394347     A.U. after   28 cycles
 SCF Done:  E(RB3LYP) =  -11166.0399270     A.U. after   28 cycles
 SCF Done:  E(RB3LYP) =  -11166.0408163     A.U. after   28 cycles
 SCF Done:  E(RB3LYP) =  -11166.0772294     A.U. after   18 cycles
 SCF Done:  E(RB3LYP) =  -11166.0772334     A.U. after   18 cycles
 SCF Done:  E(RB3LYP) =  -11166.0772348     A.U. after   18 cycles
 SCF Done:  E(RB3LYP) =  -11166.0772363     A.U. after   17 cycles
 SCF Done:  E(RB3LYP) =  -11166.0772380     A.U. after   18 cycles
 SCF Done:  E(RB3LYP) =  -11166.0772388     A.U. after   16 cycles
 SCF Done:  E(RB3LYP) =  -11166.0772392     A.U. after   16 cycles
 SCF Done:  E(RB3LYP) =  -11166.0772395     A.U. after   14 cycles
 SCF Done:  E(RB3LYP) =  -11166.0772397     A.U. after   14 cycles
 Optimization completed.
    -- Stationary point found.
 Normal termination of Gaussian 16 at Tue Dec 20 13:59:32 2022.

 ------------------------------------------------------------------
 #N Geom=AllCheck Guess=TCheck SCRF=Check GenChk RB3LYP/ChkBas Freq
 ------------------------------------------------------------------

 Structure from the checkpoint file:  "/home/chesagar/scratch/Gau-183290.chk"
 -------------------
 Title Card Required
 -------------------
 Charge =  0 Multiplicity = 1

                          Input orientation:
 ---------------------------------------------------------------------
 Center     Atomic      Atomic             Coordinates (Angstroms)
 Number     Number       Type             X           Y           Z
 ---------------------------------------------------------------------
      1         42           0       -0.006677    1.567370   12.299708
      2         16           0        1.043610    3.645985   12.589059
      3         16           0       -2.121819    2.135896   12.897872
      4         16           0       -0.268175    0.948036    9.986297
      5         16           0        2.181507    0.100865   11.849037
      6         42           0       -2.076020    2.396653   10.499901
      7         16           0       -2.681048    1.811524    8.172161
      8         16           0       -1.309797    4.546583   10.453252
      9         42           0        0.805687    3.123892   10.176611
     10         16           0        0.355343    3.300252    7.713562
     11         16           0        2.827872    2.005019    9.363166
     12         42           0        2.945931    2.545695   11.715461
     13         42           0       -1.957439    4.125872    8.144216
     14         16           0        3.738244    2.291280   14.164811
     15         16           0        4.408357    4.299674   11.673204
     16         16           0       -3.972362    5.293970    8.255882
     17         16           0       -0.716155    6.481342    7.876355
     18         42           0       -4.520360    3.109008    8.765863
     19         16           0       -6.201098    2.508480    7.612727
     20         16           0       -4.560510    2.851720   10.979834
     21         42           0        2.402397    0.513292   14.083846
     22         16           0        3.189592   -1.102908   15.194002
     23         16           0        0.315047    1.017777   14.743215
     24         42           0        1.706027    5.426949    7.326930
     25         16           0        1.036272    5.038525    4.992567
     26         16           0        1.654220    5.527567    9.816074
     27         42           0        3.492673    4.262314    9.454825
     28         16           0        3.615074    3.968949    6.986287
     29         16           0        5.301009    6.086609    9.227463
     30         42           0        4.438184    6.148386    7.185106
     31         16           0        5.799060    6.535593    5.609004
     32         16           0        2.663059    7.757490    7.280037
     33         42           0        1.725757    7.269041    5.122880
     34         16           0        2.932237    7.645835    3.416381
     35         16           0       -0.143855    8.510537    5.053274
     36         42           0       -0.919157    6.306416    5.666671
     37         16           0       -1.980849    4.041373    5.533621
     38          1           0       -3.287071    4.336757    5.349516
     39         16           0       -2.926921    7.232442    4.827546
     40          1           0       -3.821927    6.225191    4.967979
 ---------------------------------------------------------------------

 SCF Done:  E(RB3LYP) =  -11166.0772397     A.U. after    3 cycles

 Alpha  occ. eigenvalues --  -88.94712 -88.93818 -88.93649 -88.93575 -88.93300
 Alpha  occ. eigenvalues --  -88.93192 -88.92338 -88.91809 -88.91723 -88.91672
 Alpha  occ. eigenvalues --  -88.91431 -88.91138 -88.91091 -88.90764 -88.90727
 Alpha  occ. eigenvalues --  -88.90407 -88.90359 -88.90241 -88.90023 -88.89829
 Alpha  occ. eigenvalues --  -88.89225 -88.88115 -88.88090 -88.87983 -88.87722
 Alpha  occ. eigenvalues --  -88.86949  -8.02100  -8.01210  -8.01178  -8.00980
 Alpha  occ. eigenvalues --   -8.00724  -8.00540  -7.99786  -7.99395  -7.99190
 Alpha  occ. eigenvalues --   -7.99130  -7.99009  -7.98597  -7.98579  -7.98505
 Alpha  occ. eigenvalues --   -7.98456  -7.98260  -7.97932  -7.97931  -7.97766
 Alpha  occ. eigenvalues --   -7.97604  -7.96971  -7.95983  -7.95961  -7.95433
 Alpha  occ. eigenvalues --   -7.95337  -7.94800  -5.98127  -5.98080  -5.98001
 Alpha  occ. eigenvalues --   -5.97245  -5.97207  -5.97194  -5.97169  -5.97093
 Alpha  occ. eigenvalues --   -5.97060  -5.97040  -5.96954  -5.96857  -5.96773
 Alpha  occ. eigenvalues --   -5.96720  -5.96590  -5.96587  -5.96565  -5.96394
 Alpha  occ. eigenvalues --   -5.95833  -5.95762  -5.95666  -5.95452  -5.95356
 Alpha  occ. eigenvalues --   -5.95249  -5.95245  -5.95189  -5.95162  -5.95115
 Alpha  occ. eigenvalues --   -5.95082  -5.95061  -5.95002  -5.94960  -5.94857
 Alpha  occ. eigenvalues --   -5.94837  -5.94617  -5.94604  -5.94600  -5.94561
 Alpha  occ. eigenvalues --   -5.94506  -5.94473  -5.94448  -5.94408  -5.94310
 Alpha  occ. eigenvalues --   -5.94299  -5.94244  -5.94224  -5.94206  -5.94155
 Alpha  occ. eigenvalues --   -5.93972  -5.93961  -5.93924  -5.93892  -5.93860
 Alpha  occ. eigenvalues --   -5.93826  -5.93767  -5.93695  -5.93673  -5.93586
 Alpha  occ. eigenvalues --   -5.93543  -5.93433  -5.93028  -5.92934  -5.92793
 Alpha  occ. eigenvalues --   -5.92019  -5.91991  -5.91935  -5.91911  -5.91809
 Alpha  occ. eigenvalues --   -5.91797  -5.91641  -5.91542  -5.91436  -5.91252
 Alpha  occ. eigenvalues --   -5.91198  -5.91048  -5.90832  -5.90719  -5.90672
 Alpha  occ. eigenvalues --   -2.59424  -2.58222  -2.57741  -2.57193  -2.56948
 Alpha  occ. eigenvalues --   -2.56791  -2.56525  -2.56490  -2.56285  -2.56000
 Alpha  occ. eigenvalues --   -2.55324  -2.53398  -1.62216  -1.61722  -1.61374
 Alpha  occ. eigenvalues --   -1.61342  -1.61071  -1.60799  -1.60403  -1.60149
 Alpha  occ. eigenvalues --   -1.60120  -1.59929  -1.59848  -1.59718  -1.59640
 Alpha  occ. eigenvalues --   -1.59615  -1.59481  -1.59194  -1.59000  -1.58932
 Alpha  occ. eigenvalues --   -1.58714  -1.58694  -1.58627  -1.58424  -1.58362
 Alpha  occ. eigenvalues --   -1.58346  -1.58233  -1.58168  -1.58102  -1.57912
 Alpha  occ. eigenvalues --   -1.57837  -1.57397  -1.57288  -1.57144  -1.56766
 Alpha  occ. eigenvalues --   -1.55670  -1.55539  -1.54910  -0.79010  -0.77324
 Alpha  occ. eigenvalues --   -0.77011  -0.76500  -0.76348  -0.75733  -0.75493
 Alpha  occ. eigenvalues --   -0.74964  -0.74278  -0.74035  -0.73931  -0.73578
 Alpha  occ. eigenvalues --   -0.73495  -0.73242  -0.73169  -0.72911  -0.72608
 Alpha  occ. eigenvalues --   -0.72497  -0.71977  -0.71855  -0.71431  -0.71389
 Alpha  occ. eigenvalues --   -0.70490  -0.69386  -0.69373  -0.68273  -0.47541
 Alpha  occ. eigenvalues --   -0.46377  -0.46024  -0.45627  -0.45216  -0.44190
 Alpha  occ. eigenvalues --   -0.43963  -0.43562  -0.43334  -0.43109  -0.42955
 Alpha  occ. eigenvalues --   -0.42669  -0.42227  -0.41818  -0.41690  -0.41579
 Alpha  occ. eigenvalues --   -0.41208  -0.40756  -0.40680  -0.40527  -0.40498
 Alpha  occ. eigenvalues --   -0.40448  -0.39999  -0.39735  -0.39597  -0.39394
 Alpha  occ. eigenvalues --   -0.39320  -0.39230  -0.38829  -0.38567  -0.38476
 Alpha  occ. eigenvalues --   -0.38228  -0.38119  -0.37832  -0.37816  -0.37644
 Alpha  occ. eigenvalues --   -0.37558  -0.37244  -0.37171  -0.37032  -0.36883
 Alpha  occ. eigenvalues --   -0.36780  -0.36504  -0.36424  -0.36185  -0.36122
 Alpha  occ. eigenvalues --   -0.35651  -0.35553  -0.35085  -0.35013  -0.34902
 Alpha  occ. eigenvalues --   -0.34627  -0.34416  -0.34294  -0.34125  -0.34008
 Alpha  occ. eigenvalues --   -0.33656  -0.33571  -0.33327  -0.33148  -0.32927
 Alpha  occ. eigenvalues --   -0.32527  -0.32365  -0.32011  -0.31779  -0.31296
 Alpha  occ. eigenvalues --   -0.31192  -0.30867  -0.30742  -0.30651  -0.30561
 Alpha  occ. eigenvalues --   -0.29963  -0.29916  -0.29545  -0.29184  -0.28622
 Alpha  occ. eigenvalues --   -0.28511  -0.28411  -0.27976  -0.27760  -0.27533
 Alpha  occ. eigenvalues --   -0.27301  -0.27065  -0.26318  -0.26182  -0.25774
 Alpha  occ. eigenvalues --   -0.25300  -0.24720  -0.23890
 Alpha virt. eigenvalues --   -0.20558  -0.18034  -0.17658  -0.17262  -0.16470
 Alpha virt. eigenvalues --   -0.16334  -0.16095  -0.15681  -0.15131  -0.14931
 Alpha virt. eigenvalues --   -0.14801  -0.14604  -0.14253  -0.14011  -0.13868

 Mulliken charges:
               1
     1  Mo  -0.280216
     2  S    0.421835
     3  S    0.097554
     4  S    0.237588
     5  S    0.062058
     6  Mo  -0.173553
     7  S    0.201170
     8  S    0.265620
     9  Mo  -0.701497
    10  S    0.206319
    11  S    0.242010
    12  Mo  -0.333297
    13  Mo  -0.575803
    14  S    0.002482
    15  S    0.095393
    16  S    0.095411
    17  S    0.104144
    18  Mo   0.245424
    19  S   -0.224235
    20  S   -0.044675
    21  Mo   0.263245
    22  S   -0.160468
    23  S   -0.004290
    24  Mo  -0.668482
    25  S    0.173469
    26  S    0.241475
    27  Mo  -0.164285
    28  S    0.193799
    29  S   -0.037279
    30  Mo   0.261665
    31  S   -0.181382
    32  S    0.071943
    33  Mo   0.208450
    34  S   -0.215903
    35  S    0.051300
    36  Mo  -0.250338
    37  S    0.126048
    38  H    0.088972
    39  S    0.019107
    40  H    0.039219
 Sum of Mulliken charges =  -0.00000

 Dipole moment (field-independent basis, Debye):
    X=              0.4653    Y=             -4.3769    Z=              4.1093  Tot=              6.0217
 Quadrupole moment (field-independent basis, Debye-Ang):
   XX=           -629.3061   YY=           -657.5975   ZZ=           -559.5354
   XY=             -6.3187   XZ=             13.1215   YZ=            -15.3916

  Exact polarizability:    1261.393      66.104     901.814      98.206    -473.348    1249.647
 Approx polarizability:    3883.321     154.073    2727.524     244.032   -1073.144    3867.535

                      1                      2                      3
                      A                      A                      A
 Frequencies --     24.8310                35.6804                37.7299
 Red. masses --     38.8309                36.4327                21.6909
 Frc consts  --      0.0141                 0.0273                 0.0182
 IR Inten    --      0.0803                 0.1291                 0.0402

                      4                      5                      6
                      A                      A                      A
 Frequencies --     43.4996                44.8040                48.0086
 Red. masses --     35.1262                36.7197                36.7154
 Frc consts  --      0.0392                 0.0434                 0.0499
 IR Inten    --      0.0504                 0.0441                 0.1824

                      7                      8                      9
                      A                      A                      A
 Frequencies --     54.1772                54.6824                60.3777
 Red. masses --     34.4279                29.8975                35.6802
 Frc consts  --      0.0595                 0.0527                 0.0766
 IR Inten    --      0.6883                 0.4177                 1.2846

                     10                     11                     12
                      A                      A                      A
 Frequencies --     67.2098                69.5811                75.8121
 Red. masses --     35.1245                37.0544                35.7674
 Frc consts  --      0.0935                 0.1057                 0.1211
 IR Inten    --      0.1853                 0.9269                 0.0579

                     13                     14                     15
                      A                      A                      A
 Frequencies --     78.7448                82.5481                85.9713
 Red. masses --     32.3159                39.3892                43.0037
 Frc consts  --      0.1181                 0.1581                 0.1873
 IR Inten    --      0.5789                 0.3828                 0.6369

                     16                     17                     18
                      A                      A                      A
 Frequencies --     89.7379                93.1835                95.3464
 Red. masses --     40.9996                42.8497                38.6568
 Frc consts  --      0.1945                 0.2192                 0.2071
 IR Inten    --      1.5875                 0.3949                 0.1822

                     19                     20                     21
                      A                      A                      A
 Frequencies --     96.1947               103.5143               107.1232
 Red. masses --     42.8724                42.1794                32.7783
 Frc consts  --      0.2337                 0.2663                 0.2216
 IR Inten    --      1.0192                 1.7406                 0.1990

                     22                     23                     24
                      A                      A                      A
 Frequencies --    111.6050               117.0598               118.1989
 Red. masses --     43.2812                46.5346                42.4471
 Frc consts  --      0.3176                 0.3757                 0.3494
 IR Inten    --      0.8402                 0.0905                 0.1116

                     25                     26                     27
                      A                      A                      A
 Frequencies --    124.0920               127.5036               130.4847
 Red. masses --     45.2399                43.2131                42.7271
 Frc consts  --      0.4104                 0.4139                 0.4286
 IR Inten    --      0.2078                 0.3009                 0.5766

                     28                     29                     30
                      A                      A                      A
 Frequencies --    136.5298               137.5059               139.4732
 Red. masses --     42.2402                46.7328                41.9505
 Frc consts  --      0.4639                 0.5206                 0.4808
 IR Inten    --      1.4446                 0.6069                 2.3862

                     31                     32                     33
                      A                      A                      A
 Frequencies --    143.9048               144.9705               147.5452
 Red. masses --     43.8960                48.3817                44.8383
 Frc consts  --      0.5356                 0.5991                 0.5751
 IR Inten    --      1.0169                 4.8890                 2.9669

                     34                     35                     36
                      A                      A                      A
 Frequencies --    148.0877               153.1437               159.4363
 Red. masses --     44.4585                44.6798                41.5851
 Frc consts  --      0.5744                 0.6174                 0.6228
 IR Inten    --      0.3892                 1.0823                 0.6606

                     37                     38                     39
                      A                      A                      A
 Frequencies --    161.0978               163.5278               169.5955
 Red. masses --     40.8445                36.0528                46.6787
 Frc consts  --      0.6245                 0.5680                 0.7910
 IR Inten    --      0.6515                 2.5795                 4.7607

                     40                     41                     42
                      A                      A                      A
 Frequencies --    170.8184               177.9831               181.7035
 Red. masses --     31.6821                46.1391                38.6246
 Frc consts  --      0.5447                 0.8611                 0.7513
 IR Inten    --      0.7859                 3.4229                 0.1028

                     43                     44                     45
                      A                      A                      A
 Frequencies --    190.0828               194.6829               195.5868
 Red. masses --     44.4411                36.7986                43.9109
 Frc consts  --      0.9461                 0.8217                 0.9897
 IR Inten    --      7.2152                 4.9481                 1.8528

                     46                     47                     48
                      A                      A                      A
 Frequencies --    197.5082               203.7432               204.4942
 Red. masses --     40.4602                43.1116                30.4679
 Frc consts  --      0.9299                 1.0544                 0.7507
 IR Inten    --      2.8745                14.4240                 5.9699

                     49                     50                     51
                      A                      A                      A
 Frequencies --    209.3973               214.1717               216.4717
 Red. masses --     42.5289                23.7758                30.8081
 Frc consts  --      1.0987                 0.6426                 0.8506
 IR Inten    --      8.0335                 0.0741                 0.8895

                     52                     53                     54
                      A                      A                      A
 Frequencies --    217.5136               221.8530               225.0137
 Red. masses --     38.2013                29.6054                33.2665
 Frc consts  --      1.0649                 0.8585                 0.9924
 IR Inten    --      1.1506                 1.5322                 0.9205

                     55                     56                     57
                      A                      A                      A
 Frequencies --    227.7733               237.3513               248.4904
 Red. masses --     30.8670                37.0081                30.0589
 Frc consts  --      0.9435                 1.2284                 1.0936
 IR Inten    --      1.7698                 1.6349                 0.1584

                     58                     59                     60
                      A                      A                      A
 Frequencies --    251.3153               257.0410               257.4920
 Red. masses --     37.1883                33.9120                35.1220
 Frc consts  --      1.3839                 1.3201                 1.3720
 IR Inten    --      1.5359                 6.4074                 1.6343

                     61                     62                     63
                      A                      A                      A
 Frequencies --    265.3013               271.0364               274.8566
 Red. masses --     34.8930                39.0116                33.6807
 Frc consts  --      1.4470                 1.6885                 1.4991
 IR Inten    --      0.3174                 0.1029                 5.2466

                     64                     65                     66
                      A                      A                      A
 Frequencies --    279.0717               280.7695               285.3853
 Red. masses --     34.1064                27.5843                34.4150
 Frc consts  --      1.5650                 1.2812                 1.6514
 IR Inten    --      1.5426                 0.7917                 0.2889

                     67                     68                     69
                      A                      A                      A
 Frequencies --    289.1192               290.4790               292.7330
 Red. masses --     40.0366                39.2439                39.7229
 Frc consts  --      1.9718                 1.9510                 2.0056
 IR Inten    --      2.7818                 3.6225                 3.6589

                     70                     71                     72
                      A                      A                      A
 Frequencies --    297.7365               303.2815               305.5553
 Red. masses --     37.4911                37.6571                37.1564
 Frc consts  --      1.9581                 2.0407                 2.0439
 IR Inten    --      3.2480                 1.0011                 4.7469

                     73                     74                     75
                      A                      A                      A
 Frequencies --    309.0196               311.5129               315.0468
 Red. masses --     36.3010                36.4243                36.2082
 Frc consts  --      2.0424                 2.0825                 2.1174
 IR Inten    --     28.9463                 1.6425                10.8158

                     76                     77                     78
                      A                      A                      A
 Frequencies --    324.6054               324.8957               334.6768
 Red. masses --     37.7626                36.3110                35.1898
 Frc consts  --      2.3444                 2.2583                 2.3223
 IR Inten    --      4.4628                 2.7408                 0.1583

                     79                     80                     81
                      A                      A                      A
 Frequencies --    336.9825               340.0267               342.2416
 Red. masses --     37.8776                36.5175                34.6637
 Frc consts  --      2.5342                 2.4876                 2.3922
 IR Inten    --      0.3190                 0.5731                 1.3477

                     82                     83                     84
                      A                      A                      A
 Frequencies --    346.3209               349.3591               352.6784
 Red. masses --     35.6120                34.9414                39.2828
 Frc consts  --      2.5165                 2.5127                 2.8788
 IR Inten    --      0.6719                 0.7189                 0.2611

                     85                     86                     87
                      A                      A                      A
 Frequencies --    359.9750               376.4091               401.6968
 Red. masses --     23.2756                31.3016                 1.1849
 Frc consts  --      1.7770                 2.6130                 0.1127
 IR Inten    --     39.6598                 1.9695                 4.3640

                     88                     89                     90
                      A                      A                      A
 Frequencies --    408.3172               411.6693               416.4926
 Red. masses --     31.5246                20.3990                34.1731
 Frc consts  --      3.0967                 2.0368                 3.4926
 IR Inten    --      0.7081                 3.7633                 9.2687

                     91                     92                     93
                      A                      A                      A
 Frequencies --    420.1898               426.1140               428.3819
 Red. masses --     31.8342                28.3973                18.8545
 Frc consts  --      3.3116                 3.0379                 2.0386
 IR Inten    --     10.7130                 2.6545                 0.5737

                     94                     95                     96
                      A                      A                      A
 Frequencies --    430.5480               432.2769               435.6333
 Red. masses --     33.9553                29.8746                35.1056
 Frc consts  --      3.7085                 3.2891                 3.9253
 IR Inten    --      1.1299                 2.8547                 0.8434

                     97                     98                     99
                      A                      A                      A
 Frequencies --    440.6794               450.3298               451.7959
 Red. masses --     35.2008                33.2732                38.2534
 Frc consts  --      4.0276                 3.9756                 4.6005
 IR Inten    --      1.0272                 7.5150                 2.0839

                    100                    101                    102
                      A                      A                      A
 Frequencies --    455.3179               460.6180               464.4983
 Red. masses --     36.2042                32.4555                39.0241
 Frc consts  --      4.4222                 4.0571                 4.9608
 IR Inten    --     12.1490                16.7603                 7.3450

                    103                    104                    105
                      A                      A                      A
 Frequencies --    467.2193               471.8098               477.1107
 Red. masses --     33.6261                38.6480                39.0459
 Frc consts  --      4.3248                 5.0689                 5.2368
 IR Inten    --      1.8715                13.0378                25.1208

                    106                    107                    108
                      A                      A                      A
 Frequencies --    550.7655               558.2125               565.4746
 Red. masses --     39.4278                39.2668                39.8965
 Frc consts  --      7.0467                 7.2090                 7.5164
 IR Inten    --     24.0741               168.5273               214.9564

                    109                    110                    111
                      A                      A                      A
 Frequencies --    570.3032               623.4170               661.6358
 Red. masses --     39.8690                 1.0510                 1.0620
 Frc consts  --      7.6401                 0.2407                 0.2739
 IR Inten    --    167.9541                 5.2767                 3.1213

                    112                    113                    114
                      A                      A                      A
 Frequencies --    776.7261              2615.1833              2642.5249
 Red. masses --      1.0435                 1.0377                 1.0383
 Frc consts  --      0.3709                 4.1816                 4.2720
 IR Inten    --      9.0519                22.9106                 1.1128

 - Thermochemistry -
 -------------------
 Temperature   298.150 Kelvin.  Pressure   1.00000 Atm.
 Atom     1 has atomic number 42 and mass  97.90550

 Molecular mass:  2008.15552 amu.
 Principal axes and moments of inertia in atomic units:
                           1         2         3
     Eigenvalues --  ******************************
           X            0.02598   0.98663  -0.16091
           Y           -0.58866   0.14519   0.79523
           Z            0.80796   0.07406   0.58456
 This molecule is an asymmetric top.
 Rotational symmetry number  1.
 Warning -- assumption of classical behavior for rotation
           may cause significant error
 Rotational temperatures (Kelvin)      0.00140     0.00094     0.00061
 Rotational constants (GHZ):           0.02913     0.01962     0.01264
 Zero-point vibrational energy     206696.9 (Joules/Mol)
                                   49.40175 (Kcal/Mol)
 Warning -- explicit consideration of 109 degrees of freedom as
           vibrations may cause significant error
 Vibrational temperatures:     35.73    51.34    54.28    62.59    64.46
          (Kelvin)             69.07    77.95    78.68    86.87    96.70
                              100.11   109.08   113.30   118.77   123.69
                              129.11   134.07   137.18   138.40   148.93
                              154.13   160.57   168.42   170.06   178.54
                              183.45   187.74   196.44   197.84   200.67
                              207.05   208.58   212.28   213.07   220.34
                              229.39   231.78   235.28   244.01   245.77
                              256.08   261.43   273.49   280.11   281.41
                              284.17   293.14   294.22   301.28   308.15
                              311.45   312.95   319.20   323.74   327.72
                              341.50   357.52   361.59   369.82   370.47
                              381.71   389.96   395.46   401.52   403.96
                              410.61   415.98   417.93   421.18   428.38
                              436.35   439.63   444.61   448.20   453.28
                              467.03   467.45   481.53   484.84   489.22
                              492.41   498.28   502.65   507.43   517.92
                              541.57   577.95   587.48   592.30   599.24
                              604.56   613.08   616.35   619.46   621.95
                              626.78   634.04   647.92   650.03   655.10
                              662.73   668.31   672.22   678.83   686.46
                              792.43   803.14   813.59   820.54   896.96
                              951.95  1117.54  3762.67  3802.00

 Zero-point correction=                           0.078727 (Hartree/Particle)
 Thermal correction to Energy=                    0.138309
 Thermal correction to Enthalpy=                  0.139254
 Thermal correction to Gibbs Free Energy=        -0.016767
 Sum of electronic and zero-point Energies=         -11165.998513
 Sum of electronic and thermal Energies=            -11165.938930
 Sum of electronic and thermal Enthalpies=          -11165.937986
 Sum of electronic and thermal Free Energies=       -11166.094007

                     E (Thermal)             CV                S
                      KCal/Mol        Cal/Mol-Kelvin    Cal/Mol-Kelvin
 Total                   86.790            195.963            328.373
 Electronic               0.000              0.000              0.000
 Translational            0.889              2.981             48.660
 Rotational               0.889              2.981             41.916
 Vibrational             85.013            190.002            237.797
 Vibration     1          0.593              1.985              6.205
 Vibration     2          0.594              1.982              5.486
 Vibration     3          0.594              1.982              5.375
 Vibration     4          0.595              1.980              5.093
 Vibration     5          0.595              1.979              5.034
 Vibration     6          0.595              1.978              4.898
 Vibration     7          0.596              1.976              4.659
 Vibration     8          0.596              1.976              4.640
 Vibration     9          0.597              1.973              4.445
 Vibration    10          0.598              1.970              4.233
 Vibration    11          0.598              1.969              4.165
 Vibration    12          0.599              1.965              3.996
 Vibration    13          0.600              1.963              3.922
 Vibration    14          0.600              1.961              3.829
 Vibration    15          0.601              1.959              3.750
 Vibration    16          0.602              1.956              3.666
 Vibration    17          0.602              1.954              3.592
 Vibration    18          0.603              1.953              3.547
 Vibration    19          0.603              1.952              3.530
 Vibration    20          0.605              1.946              3.387
 Vibration    21          0.606              1.944              3.320
 Vibration    22          0.607              1.940              3.241
 Vibration    23          0.608              1.935              3.148
 Vibration    24          0.608              1.934              3.130
 Vibration    25          0.610              1.929              3.036
 Vibration    26          0.611              1.926              2.983
 Vibration    27          0.612              1.923              2.939
 Vibration    28          0.614              1.917              2.852
 Vibration    29          0.614              1.916              2.838
 Vibration    30          0.615              1.914              2.811
 Vibration    31          0.616              1.909              2.751
 Vibration    32          0.616              1.908              2.737
 Vibration    33          0.617              1.905              2.704
 Vibration    34          0.617              1.905              2.697
 Vibration    35          0.619              1.899              2.633
 Vibration    36          0.621              1.892              2.556
 Vibration    37          0.622              1.890              2.537
 Vibration    38          0.623              1.887              2.509
 Vibration    39          0.625              1.880              2.440
 Vibration    40          0.626              1.878              2.426
 Vibration    41          0.628              1.869              2.349
 Vibration    42          0.630              1.865              2.311
 Vibration    43          0.633              1.854              2.227
 Vibration    44          0.635              1.847              2.183
 Vibration    45          0.636              1.846              2.174
 Vibration    46          0.637              1.843              2.156
 Vibration    47          0.639              1.835              2.099
 Vibration    48          0.640              1.833              2.092
 Vibration    49          0.642              1.826              2.049
 Vibration    50          0.644              1.819              2.008
 Vibration    51          0.645              1.816              1.988
 Vibration    52          0.646              1.814              1.980
 Vibration    53          0.648              1.808              1.944
 Vibration    54          0.650              1.803              1.918
 Vibration    55          0.651              1.799              1.896
 Vibration    56          0.656              1.783              1.823
 Vibration    57          0.662              1.765              1.741
 Vibration    58          0.663              1.761              1.721
 Vibration    59          0.667              1.751              1.682
 Vibration    60          0.667              1.750              1.679
 Vibration    61          0.671              1.737              1.627
 Vibration    62          0.675              1.727              1.590
 Vibration    63          0.677              1.720              1.565
 Vibration    64          0.679              1.712              1.539
 Vibration    65          0.680              1.709              1.529
 Vibration    66          0.683              1.701              1.501
 Vibration    67          0.686              1.694              1.479
 Vibration    68          0.686              1.691              1.471
 Vibration    69          0.688              1.687              1.458
 Vibration    70          0.691              1.678              1.430
 Vibration    71          0.695              1.667              1.399
 Vibration    72          0.696              1.663              1.386
 Vibration    73          0.698              1.657              1.368
 Vibration    74          0.700              1.652              1.354
 Vibration    75          0.702              1.645              1.336
 Vibration    76          0.709              1.626              1.287
 Vibration    77          0.709              1.626              1.285
 Vibration    78          0.716              1.606              1.237
 Vibration    79          0.718              1.602              1.226
 Vibration    80          0.720              1.596              1.212
 Vibration    81          0.721              1.591              1.202
 Vibration    82          0.724              1.583              1.183
 Vibration    83          0.727              1.577              1.169
 Vibration    84          0.729              1.570              1.154
 Vibration    85          0.734              1.555              1.122
 Vibration    86          0.747              1.520              1.054
 Vibration    87          0.767              1.466              0.956
 Vibration    88          0.773              1.452              0.933
 Vibration    89          0.776              1.445              0.921
 Vibration    90          0.780              1.434              0.904
 Vibration    91          0.783              1.426              0.891
 Vibration    92          0.788              1.413              0.871
 Vibration    93          0.790              1.408              0.864
 Vibration    94          0.792              1.404              0.857
 Vibration    95          0.793              1.400              0.851
 Vibration    96          0.796              1.393              0.840
 Vibration    97          0.801              1.381              0.824
 Vibration    98          0.809              1.360              0.795
 Vibration    99          0.810              1.357              0.790
 Vibration   100          0.814              1.349              0.780
 Vibration   101          0.818              1.337              0.764
 Vibration   102          0.822              1.329              0.753
 Vibration   103          0.824              1.323              0.745
 Vibration   104          0.829              1.313              0.732
 Vibration   105          0.834              1.301              0.718
 Vibration   106          0.906              1.138              0.543
 Vibration   107          0.914              1.122              0.527
 Vibration   108          0.921              1.106              0.513
 Vibration   109          0.926              1.095              0.504

                           ! Non-Optimized Parameters !
 Normal termination of Gaussian 16 at Tue Dec 20 14:29:20 2022.
