 Gaussian 16, Revision C.01,
 Gaussian 16:  ES64L-G16RevC.01  3-Jul-2019

 -----------------------------------------------------------
 # opt=(calcfc,ts,noeigen) freq b3lyp/gen nosymm pseudo=read
 -----------------------------------------------------------

 -------------------
 Title Card Required
 -------------------
 Symbolic Z-matrix:
 Charge =  0 Multiplicity = 1

 SCF Done:  E(RB3LYP) =  -11165.9805682     A.U. after   37 cycles
 SCF Done:  E(RB3LYP) =  -11165.9950939     A.U. after   21 cycles
 SCF Done:  E(RB3LYP) =  -11166.0127630     A.U. after   22 cycles
 SCF Done:  E(RB3LYP) =  -11166.0218205     A.U. after   23 cycles
 SCF Done:  E(RB3LYP) =  -11166.0243053     A.U. after   23 cycles
 SCF Done:  E(RB3LYP) =  -11166.0264225     A.U. after   21 cycles
 SCF Done:  E(RB3LYP) =  -11166.0274984     A.U. after   23 cycles
 SCF Done:  E(RB3LYP) =  -11166.0275278     A.U. after   23 cycles
 SCF Done:  E(RB3LYP) =  -11166.0271996     A.U. after   23 cycles
 SCF Done:  E(RB3LYP) =  -11166.0278013     A.U. after   22 cycles
 SCF Done:  E(RB3LYP) =  -11166.0263020     A.U. after   23 cycles
 SCF Done:  E(RB3LYP) =  -11166.0272398     A.U. after   24 cycles
 SCF Done:  E(RB3LYP) =  -11166.0267369     A.U. after   24 cycles
 SCF Done:  E(RB3LYP) =  -11166.0278065     A.U. after   23 cycles
 SCF Done:  E(RB3LYP) =  -11166.0278515     A.U. after   21 cycles
 SCF Done:  E(RB3LYP) =  -11166.0278571     A.U. after   19 cycles
 SCF Done:  E(RB3LYP) =  -11166.0278583     A.U. after   19 cycles
 SCF Done:  E(RB3LYP) =  -11166.0278593     A.U. after   18 cycles
 SCF Done:  E(RB3LYP) =  -11166.0278593     A.U. after   14 cycles
 Optimization completed.
    -- Stationary point found.
 Normal termination of Gaussian 16 at Tue Dec 20 15:16:55 2022.

 ------------------------------------------------------------------
 #N Geom=AllCheck Guess=TCheck SCRF=Check GenChk RB3LYP/ChkBas Freq
 ------------------------------------------------------------------

 Structure from the checkpoint file:  "/home/chesagar/scratch/Gau-103769.chk"
 -------------------
 Title Card Required
 -------------------
 Charge =  0 Multiplicity = 1

                          Input orientation:
 ---------------------------------------------------------------------
 Center     Atomic      Atomic             Coordinates (Angstroms)
 Number     Number       Type             X           Y           Z
 ---------------------------------------------------------------------
      1         42           0        0.015225    1.544584   12.268252
      2         16           0        1.042706    3.623789   12.596656
      3         16           0       -2.119355    2.066757   12.872117
      4         16           0       -0.241758    0.977322    9.939102
      5         16           0        2.195122    0.095673   11.808082
      6         42           0       -2.037210    2.427386   10.511420
      7         16           0       -2.724325    1.877294    8.190491
      8         16           0       -1.289778    4.542640   10.398819
      9         42           0        0.838581    3.135467   10.166291
     10         16           0        0.376374    3.337888    7.746139
     11         16           0        2.871840    2.031533    9.353125
     12         42           0        2.961689    2.551911   11.707375
     13         42           0       -1.989775    4.198473    7.974353
     14         16           0        3.747143    2.250137   14.156570
     15         16           0        4.385730    4.333181   11.704583
     16         16           0       -3.913762    5.440994    8.373191
     17         16           0       -0.733317    6.494371    7.874243
     18         42           0       -4.517546    3.249186    8.799968
     19         16           0       -6.248367    2.766040    7.673138
     20         16           0       -4.525710    2.924583   11.005045
     21         42           0        2.412368    0.472848   14.050428
     22         16           0        3.199462   -1.157039   15.140434
     23         16           0        0.324505    0.966268   14.711705
     24         42           0        1.721962    5.443607    7.322560
     25         16           0        1.035323    5.040703    4.970805
     26         16           0        1.657078    5.556785    9.812628
     27         42           0        3.505216    4.297213    9.464802
     28         16           0        3.653302    4.015792    6.993905
     29         16           0        5.263673    6.169606    9.298922
     30         42           0        4.471421    6.191211    7.231363
     31         16           0        5.911875    6.601458    5.732954
     32         16           0        2.660756    7.762663    7.278386
     33         42           0        1.768610    7.266606    5.099857
     34         16           0        3.143715    7.644513    3.534403
     35         16           0       -0.071006    8.447118    4.958766
     36         42           0       -1.072827    6.094718    5.711294
     37         16           0       -2.059918    3.973292    5.562750
     38          1           0       -3.663367    4.689207    5.139686
     39         16           0       -2.922129    6.977547    4.925416
     40          1           0       -3.927610    5.513921    4.966174
 ---------------------------------------------------------------------

 SCF Done:  E(RB3LYP) =  -11166.0278593     A.U. after    3 cycles

 Alpha  occ. eigenvalues --  -88.94610 -88.93947 -88.93624 -88.93497 -88.93197
 Alpha  occ. eigenvalues --  -88.93067 -88.92029 -88.91914 -88.91897 -88.91730
 Alpha  occ. eigenvalues --  -88.91415 -88.91012 -88.90730 -88.90666 -88.90630
 Alpha  occ. eigenvalues --  -88.90596 -88.90327 -88.89910 -88.89797 -88.89592
 Alpha  occ. eigenvalues --  -88.89425 -88.89276 -88.88057 -88.87967 -88.87693
 Alpha  occ. eigenvalues --  -88.87547  -8.02001  -8.01298  -8.01153  -8.00896
 Alpha  occ. eigenvalues --   -8.00625  -8.00400  -7.99517  -7.99459  -7.99325
 Alpha  occ. eigenvalues --   -7.99131  -7.98989  -7.98469  -7.98458  -7.98397
 Alpha  occ. eigenvalues --   -7.98229  -7.98128  -7.98101  -7.97686  -7.97463
 Alpha  occ. eigenvalues --   -7.97352  -7.97065  -7.97045  -7.95925  -7.95849
 Alpha  occ. eigenvalues --   -7.95565  -7.95021  -5.98032  -5.97984  -5.97897
 Alpha  occ. eigenvalues --   -5.97331  -5.97311  -5.97176  -5.97171  -5.97141
 Alpha  occ. eigenvalues --   -5.97035  -5.96961  -5.96865  -5.96776  -5.96675
 Alpha  occ. eigenvalues --   -5.96619  -5.96488  -5.96454  -5.96425  -5.96252
 Alpha  occ. eigenvalues --   -5.95572  -5.95524  -5.95473  -5.95422  -5.95374
 Alpha  occ. eigenvalues --   -5.95373  -5.95347  -5.95339  -5.95190  -5.95165
 Alpha  occ. eigenvalues --   -5.95120  -5.95064  -5.94999  -5.94942  -5.94837
 Alpha  occ. eigenvalues --   -5.94567  -5.94503  -5.94480  -5.94464  -5.94411
 Alpha  occ. eigenvalues --   -5.94350  -5.94338  -5.94272  -5.94222  -5.94191
 Alpha  occ. eigenvalues --   -5.94186  -5.94176  -5.94148  -5.94132  -5.94125
 Alpha  occ. eigenvalues --   -5.94068  -5.93987  -5.93924  -5.93758  -5.93625
 Alpha  occ. eigenvalues --   -5.93510  -5.93484  -5.93451  -5.93450  -5.93347
 Alpha  occ. eigenvalues --   -5.93317  -5.93274  -5.93172  -5.93147  -5.92983
 Alpha  occ. eigenvalues --   -5.92916  -5.92840  -5.92788  -5.91959  -5.91876
 Alpha  occ. eigenvalues --   -5.91876  -5.91804  -5.91757  -5.91681  -5.91603
 Alpha  occ. eigenvalues --   -5.91501  -5.91407  -5.91104  -5.91019  -5.90865
 Alpha  occ. eigenvalues --   -2.59400  -2.58248  -2.57697  -2.57548  -2.56794
 Alpha  occ. eigenvalues --   -2.56482  -2.56398  -2.56362  -2.56210  -2.55966
 Alpha  occ. eigenvalues --   -2.55576  -2.53327  -1.62197  -1.61702  -1.61345
 Alpha  occ. eigenvalues --   -1.61340  -1.61127  -1.60832  -1.60431  -1.60313
 Alpha  occ. eigenvalues --   -1.60073  -1.59824  -1.59706  -1.59616  -1.59562
 Alpha  occ. eigenvalues --   -1.59375  -1.59291  -1.59228  -1.59001  -1.58886
 Alpha  occ. eigenvalues --   -1.58842  -1.58649  -1.58376  -1.58329  -1.58247
 Alpha  occ. eigenvalues --   -1.58218  -1.58145  -1.58117  -1.58094  -1.57993
 Alpha  occ. eigenvalues --   -1.57772  -1.57708  -1.57620  -1.57517  -1.56589
 Alpha  occ. eigenvalues --   -1.55620  -1.55479  -1.54870  -0.78895  -0.77064
 Alpha  occ. eigenvalues --   -0.76840  -0.76381  -0.75642  -0.75464  -0.75098
 Alpha  occ. eigenvalues --   -0.74545  -0.74134  -0.73977  -0.73661  -0.73496
 Alpha  occ. eigenvalues --   -0.73341  -0.73196  -0.72989  -0.72485  -0.72372
 Alpha  occ. eigenvalues --   -0.71896  -0.71676  -0.71416  -0.71393  -0.70758
 Alpha  occ. eigenvalues --   -0.70121  -0.69424  -0.69221  -0.68868  -0.49845
 Alpha  occ. eigenvalues --   -0.46280  -0.46058  -0.45539  -0.45116  -0.44209
 Alpha  occ. eigenvalues --   -0.43910  -0.43378  -0.43153  -0.42993  -0.42665
 Alpha  occ. eigenvalues --   -0.42230  -0.41778  -0.41675  -0.41455  -0.41175
 Alpha  occ. eigenvalues --   -0.40735  -0.40684  -0.40629  -0.40494  -0.40304
 Alpha  occ. eigenvalues --   -0.39913  -0.39803  -0.39533  -0.39444  -0.39402
 Alpha  occ. eigenvalues --   -0.39178  -0.39002  -0.38620  -0.38532  -0.38282
 Alpha  occ. eigenvalues --   -0.38085  -0.37827  -0.37772  -0.37675  -0.37621
 Alpha  occ. eigenvalues --   -0.37367  -0.37329  -0.37275  -0.36900  -0.36799
 Alpha  occ. eigenvalues --   -0.36691  -0.36349  -0.36288  -0.36145  -0.35980
 Alpha  occ. eigenvalues --   -0.35540  -0.35471  -0.35277  -0.35265  -0.34820
 Alpha  occ. eigenvalues --   -0.34674  -0.34450  -0.34290  -0.34132  -0.33893
 Alpha  occ. eigenvalues --   -0.33677  -0.33484  -0.33302  -0.33199  -0.32999
 Alpha  occ. eigenvalues --   -0.32542  -0.32371  -0.32052  -0.31815  -0.31220
 Alpha  occ. eigenvalues --   -0.31136  -0.30797  -0.30646  -0.30474  -0.29997
 Alpha  occ. eigenvalues --   -0.29733  -0.29470  -0.29444  -0.29147  -0.28727
 Alpha  occ. eigenvalues --   -0.28628  -0.28225  -0.28145  -0.27709  -0.27557
 Alpha  occ. eigenvalues --   -0.27337  -0.27208  -0.26752  -0.26053  -0.25657
 Alpha  occ. eigenvalues --   -0.25271  -0.24772  -0.24153
 Alpha virt. eigenvalues --   -0.20528  -0.17982  -0.17827  -0.16979  -0.16380
 Alpha virt. eigenvalues --   -0.16284  -0.16054  -0.15556  -0.15008  -0.14886
 Alpha virt. eigenvalues --   -0.14769  -0.14647  -0.14386  -0.13825  -0.13640

 Mulliken charges:
               1
     1  Mo  -0.281737
     2  S    0.418320
     3  S    0.100160
     4  S    0.248330
     5  S    0.061772
     6  Mo  -0.158491
     7  S    0.171402
     8  S    0.266875
     9  Mo  -0.696497
    10  S    0.240252
    11  S    0.242899
    12  Mo  -0.338482
    13  Mo  -0.662652
    14  S    0.000492
    15  S    0.095854
    16  S    0.121395
    17  S    0.158476
    18  Mo   0.244582
    19  S   -0.216174
    20  S   -0.053021
    21  Mo   0.268935
    22  S   -0.160723
    23  S   -0.004359
    24  Mo  -0.695553
    25  S    0.145132
    26  S    0.246635
    27  Mo  -0.169703
    28  S    0.186275
    29  S   -0.032435
    30  Mo   0.269046
    31  S   -0.188525
    32  S    0.083001
    33  Mo   0.231478
    34  S   -0.191597
    35  S   -0.023703
    36  Mo  -0.047255
    37  S    0.106296
    38  H    0.039893
    39  S   -0.026887
    40  H    0.000297
 Sum of Mulliken charges =  -0.00000

 Dipole moment (field-independent basis, Debye):
    X=              1.1013    Y=             -3.5409    Z=              3.5736  Tot=              5.1499
 Quadrupole moment (field-independent basis, Debye-Ang):
   XX=           -632.4675   YY=           -645.4416   ZZ=           -564.6337
   XY=             -4.6761   XZ=             16.5469   YZ=            -15.3293

  Exact polarizability:    1263.206      68.619     904.311      88.583    -476.352    1242.155
 Approx polarizability:    3908.403     170.226    2836.368     189.316   -1130.228    3911.906

 ******    1 imaginary frequencies (negative Signs) ******

                      1                      2                      3
                      A                      A                      A
 Frequencies --   -816.4060                24.9709                36.0320
 Red. masses --      1.2271                40.2938                26.7072
 Frc consts  --      0.4819                 0.0148                 0.0204
 IR Inten    --    212.7360                 0.0235                 0.3053

                      4                      5                      6
                      A                      A                      A
 Frequencies --     38.5354                45.6956                48.0698
 Red. masses --     35.0083                41.4378                40.2330
 Frc consts  --      0.0306                 0.0510                 0.0548
 IR Inten    --      0.0685                 0.0715                 0.1174

                      7                      8                      9
                      A                      A                      A
 Frequencies --     48.9628                56.2466                59.3174
 Red. masses --     38.5480                39.1895                38.6448
 Frc consts  --      0.0544                 0.0730                 0.0801
 IR Inten    --      0.0677                 0.3602                 0.2791

                     10                     11                     12
                      A                      A                      A
 Frequencies --     65.8446                69.9385                72.3965
 Red. masses --     37.2794                32.0718                35.9725
 Frc consts  --      0.0952                 0.0924                 0.1111
 IR Inten    --      0.2170                 0.1165                 0.7415

                     13                     14                     15
                      A                      A                      A
 Frequencies --     76.5839                81.1484                85.3084
 Red. masses --     37.7977                26.5124                36.2138
 Frc consts  --      0.1306                 0.1029                 0.1553
 IR Inten    --      0.9783                 0.2825                 0.8179

                     16                     17                     18
                      A                      A                      A
 Frequencies --     88.6224                90.3579                94.2526
 Red. masses --     42.6569                41.5735                39.5672
 Frc consts  --      0.1974                 0.2000                 0.2071
 IR Inten    --      0.0498                 0.5689                 0.0805

                     19                     20                     21
                      A                      A                      A
 Frequencies --     95.5099                97.3962               105.5792
 Red. masses --     39.0228                37.9172                44.9080
 Frc consts  --      0.2097                 0.2119                 0.2949
 IR Inten    --      0.1422                 0.7621                 0.8330

                     22                     23                     24
                      A                      A                      A
 Frequencies --    112.1029               113.5345               117.4847
 Red. masses --     41.8203                44.3373                42.3402
 Frc consts  --      0.3097                 0.3367                 0.3443
 IR Inten    --      0.9628                 0.2283                 0.4863

                     25                     26                     27
                      A                      A                      A
 Frequencies --    118.8592               124.4875               126.5685
 Red. masses --     40.9435                43.1042                42.0853
 Frc consts  --      0.3408                 0.3936                 0.3972
 IR Inten    --      0.4320                 0.3493                 0.2422

                     28                     29                     30
                      A                      A                      A
 Frequencies --    130.6244               133.4934               136.3065
 Red. masses --     34.9997                31.4933                52.5031
 Frc consts  --      0.3519                 0.3307                 0.5747
 IR Inten    --      1.7126                 0.4501                 1.2854

                     31                     32                     33
                      A                      A                      A
 Frequencies --    138.6672               139.3311               142.9197
 Red. masses --     47.8595                50.1093                47.6059
 Frc consts  --      0.5422                 0.5731                 0.5729
 IR Inten    --      1.3140                 3.1977                 0.8183

                     34                     35                     36
                      A                      A                      A
 Frequencies --    144.6682               148.1345               151.1717
 Red. masses --     47.0624                44.7133                40.8409
 Frc consts  --      0.5803                 0.5781                 0.5499
 IR Inten    --      1.5878                 0.2593                 0.2875

                     37                     38                     39
                      A                      A                      A
 Frequencies --    152.4583               159.9360               161.8312
 Red. masses --     40.2000                46.1707                37.9559
 Frc consts  --      0.5505                 0.6958                 0.5857
 IR Inten    --      6.7597                 0.1123                 2.6038

                     40                     41                     42
                      A                      A                      A
 Frequencies --    163.8999               164.4732               169.4869
 Red. masses --     42.6848                43.8374                48.5609
 Frc consts  --      0.6756                 0.6987                 0.8219
 IR Inten    --      0.8648                 0.7971                 1.3698

                     43                     44                     45
                      A                      A                      A
 Frequencies --    177.8833               190.4491               193.5742
 Red. masses --     48.1687                48.0080                42.5352
 Frc consts  --      0.8980                 1.0259                 0.9391
 IR Inten    --      3.3575                 3.0387                 0.5178

                     46                     47                     48
                      A                      A                      A
 Frequencies --    196.7889               198.9819               202.6233
 Red. masses --     40.0297                40.7612                42.4581
 Frc consts  --      0.9133                 0.9509                 1.0270
 IR Inten    --      4.1266                 8.2203                 2.8881

                     49                     50                     51
                      A                      A                      A
 Frequencies --    206.8622               214.0086               216.6193
 Red. masses --     46.9655                44.7148                38.0949
 Frc consts  --      1.1841                 1.2066                 1.0532
 IR Inten    --     18.5614                 2.2179                 2.4231

                     52                     53                     54
                      A                      A                      A
 Frequencies --    218.5112               221.8745               225.2165
 Red. masses --     34.8125                33.1495                33.8711
 Frc consts  --      0.9793                 0.9615                 1.0122
 IR Inten    --      0.6050                 4.3672                 2.0144

                     55                     56                     57
                      A                      A                      A
 Frequencies --    228.9447               239.1877               246.7688
 Red. masses --     46.3392                36.7452                28.4619
 Frc consts  --      1.4311                 1.2386                 1.0212
 IR Inten    --      0.2082                 2.2365                 2.1686

                     58                     59                     60
                      A                      A                      A
 Frequencies --    249.2631               251.1882               255.5790
 Red. masses --     30.1317                34.8532                34.3249
 Frc consts  --      1.1030                 1.2957                 1.3210
 IR Inten    --      0.6026                 7.7601                 2.9655

                     61                     62                     63
                      A                      A                      A
 Frequencies --    260.9242               265.6711               271.4994
 Red. masses --     36.1982                16.9636                38.8464
 Frc consts  --      1.4520                 0.7054                 1.6871
 IR Inten    --      1.1430                 1.8945                 0.1827

                     64                     65                     66
                      A                      A                      A
 Frequencies --    277.8665               282.1643               285.5676
 Red. masses --     33.8171                33.8834                37.0516
 Frc consts  --      1.5384                 1.5894                 1.7802
 IR Inten    --      0.8327                 0.6454                 4.1224

                     67                     68                     69
                      A                      A                      A
 Frequencies --    289.1570               290.5684               293.0471
 Red. masses --     37.4626                37.7597                38.4087
 Frc consts  --      1.8455                 1.8783                 1.9434
 IR Inten    --      3.2924                 0.5165                 1.1611

                     70                     71                     72
                      A                      A                      A
 Frequencies --    301.4047               302.1649               305.0994
 Red. masses --     34.7456                36.3394                34.9588
 Frc consts  --      1.8597                 1.9549                 1.9173
 IR Inten    --      1.4950                 5.0322                 5.2729

                     73                     74                     75
                      A                      A                      A
 Frequencies --    310.1470               312.3800               316.3139
 Red. masses --     36.0221                38.0972                32.4573
 Frc consts  --      2.0415                 2.1903                 1.9134
 IR Inten    --     10.2289                12.2979                 8.0546

                     76                     77                     78
                      A                      A                      A
 Frequencies --    324.0807               331.4299               333.4082
 Red. masses --     38.1344                35.4592                38.1072
 Frc consts  --      2.3598                 2.2949                 2.4958
 IR Inten    --      7.5581                 2.0248                 1.7958

                     79                     80                     81
                      A                      A                      A
 Frequencies --    337.6622               342.3473               349.0871
 Red. masses --     34.6953                35.4011                38.9209
 Frc consts  --      2.3307                 2.4446                 2.7945
 IR Inten    --      0.1668                 0.8981                 0.1672

                     82                     83                     84
                      A                      A                      A
 Frequencies --    351.4489               356.0388               366.4355
 Red. masses --     36.8435                34.9029                12.1539
 Frc consts  --      2.6812                 2.6068                 0.9615
 IR Inten    --      1.9201                 1.4953                 0.6265

                     85                     86                     87
                      A                      A                      A
 Frequencies --    376.9948               396.9721               407.4318
 Red. masses --     34.2647                13.0136                34.7955
 Frc consts  --      2.8692                 1.2083                 3.4032
 IR Inten    --      2.3613                 9.3685                 1.8500

                     88                     89                     90
                      A                      A                      A
 Frequencies --    410.8200               415.4849               417.6027
 Red. masses --     34.5950                33.7195                32.8386
 Frc consts  --      3.4401                 3.4296                 3.3741
 IR Inten    --      1.3892                 7.2635                 9.0565

                     91                     92                     93
                      A                      A                      A
 Frequencies --    419.2180               427.6255               431.3891
 Red. masses --     33.3082                36.6730                36.3394
 Frc consts  --      3.4489                 3.9512                 3.9844
 IR Inten    --      2.3942                 2.9139                 3.6079

                     94                     95                     96
                      A                      A                      A
 Frequencies --    432.6913               435.9207               444.0130
 Red. masses --     33.7473                34.9936                35.8760
 Frc consts  --      3.7226                 3.9179                 4.1672
 IR Inten    --      3.0083                 0.2997                 0.2857

                     97                     98                     99
                      A                      A                      A
 Frequencies --    449.0128               451.3759               455.5068
 Red. masses --     17.6963                 1.4890                19.2784
 Frc consts  --      2.1021                 0.1787                 2.3567
 IR Inten    --      1.2944                 8.3880                 9.8735

                    100                    101                    102
                      A                      A                      A
 Frequencies --    457.0817               464.3654               470.7545
 Red. masses --      8.5375                39.0454                24.2122
 Frc consts  --      1.0509                 4.9607                 3.1613
 IR Inten    --      1.4367                 9.1228                 8.4758

                    103                    104                    105
                      A                      A                      A
 Frequencies --    471.9608               478.4274               489.2362
 Red. masses --     24.5293                36.2803                36.8023
 Frc consts  --      3.2192                 4.8928                 5.1899
 IR Inten    --     12.8672                16.1827                12.3192

                    106                    107                    108
                      A                      A                      A
 Frequencies --    494.8594               555.1867               561.4182
 Red. masses --      9.5636                39.5317                39.9720
 Frc consts  --      1.3799                 7.1792                 7.4230
 IR Inten    --     44.2368                 6.0344               160.0931

                    109                    110                    111
                      A                      A                      A
 Frequencies --    567.7319               570.4412               882.8037
 Red. masses --     39.6724                39.8531                 1.0588
 Frc consts  --      7.5340                 7.6407                 0.4862
 IR Inten    --    233.7003               145.9520                43.3980

                    112                    113                    114
                      A                      A                      A
 Frequencies --    976.8401              1021.4798              2183.1449
 Red. masses --      1.0118                 1.0131                 1.0152
 Frc consts  --      0.5689                 0.6228                 2.8508
 IR Inten    --      0.0913                 2.4949               120.8725

 - Thermochemistry -
 -------------------
 Temperature   298.150 Kelvin.  Pressure   1.00000 Atm.
 Atom     1 has atomic number 42 and mass  97.90550

 Molecular mass:  2008.15552 amu.
 Principal axes and moments of inertia in atomic units:
                           1         2         3
     Eigenvalues --  ******************************
           X            0.03506   0.98702  -0.15674
           Y           -0.58820   0.14717   0.79521
           Z            0.80795   0.06431   0.58573
 This molecule is an asymmetric top.
 Rotational symmetry number  1.
 Warning -- assumption of classical behavior for rotation
           may cause significant error
 Rotational temperatures (Kelvin)      0.00139     0.00095     0.00061
 Rotational constants (GHZ):           0.02889     0.01982     0.01266
    1 imaginary frequencies ignored.
 Zero-point vibrational energy     195824.1 (Joules/Mol)
                                   46.80309 (Kcal/Mol)
 Warning -- explicit consideration of 109 degrees of freedom as
           vibrations may cause significant error
 Vibrational temperatures:     35.93    51.84    55.44    65.75    69.16
          (Kelvin)             70.45    80.93    85.34    94.74   100.63
                              104.16   110.19   116.75   122.74   127.51
                              130.00   135.61   137.42   140.13   151.90
                              161.29   163.35   169.03   171.01   179.11
                              182.10   187.94   192.07   196.11   199.51
                              200.47   205.63   208.15   213.13   217.50
                              219.35   230.11   232.84   235.82   236.64
                              243.85   255.93   274.01   278.51   283.14
                              286.29   291.53   297.63   307.91   311.67
                              314.39   319.23   324.04   329.40   344.14
                              355.05   358.63   361.40   367.72   375.41
                              382.24   390.63   399.79   405.97   410.87
                              416.03   418.06   421.63   433.65   434.75
                              438.97   446.23   449.45   455.11   466.28
                              476.85   479.70   485.82   492.56   502.26
                              505.66   512.26   527.22   542.41   571.15
                              586.20   591.08   597.79   600.84   603.16
                              615.26   620.67   622.55   627.19   638.84
                              646.03   649.43   655.37   657.64   668.12
                              677.31   679.05   688.35   703.90   711.99
                              798.79   807.76   816.84   820.74  1270.16
                             1405.46  1469.68  3141.06

 Zero-point correction=                           0.074585 (Hartree/Particle)
 Thermal correction to Energy=                    0.133471
 Thermal correction to Enthalpy=                  0.134415
 Thermal correction to Gibbs Free Energy=        -0.020037
 Sum of electronic and zero-point Energies=         -11165.953274
 Sum of electronic and thermal Energies=            -11165.894388
 Sum of electronic and thermal Enthalpies=          -11165.893444
 Sum of electronic and thermal Free Energies=       -11166.047896

                     E (Thermal)             CV                S
                      KCal/Mol        Cal/Mol-Kelvin    Cal/Mol-Kelvin
 Total                   83.754            193.801            325.072
 Electronic               0.000              0.000              0.000
 Translational            0.889              2.981             48.660
 Rotational               0.889              2.981             41.912
 Vibrational             81.977            187.839            234.500
 Vibration     1          0.593              1.985              6.194
 Vibration     2          0.594              1.982              5.466
 Vibration     3          0.594              1.981              5.333
 Vibration     4          0.595              1.979              4.995
 Vibration     5          0.595              1.978              4.895
 Vibration     6          0.595              1.978              4.859
 Vibration     7          0.596              1.975              4.585
 Vibration     8          0.597              1.974              4.480
 Vibration     9          0.597              1.971              4.274
 Vibration    10          0.598              1.968              4.155
 Vibration    11          0.598              1.967              4.087
 Vibration    12          0.599              1.965              3.977
 Vibration    13          0.600              1.962              3.863
 Vibration    14          0.601              1.959              3.765
 Vibration    15          0.601              1.957              3.690
 Vibration    16          0.602              1.956              3.652
 Vibration    17          0.603              1.953              3.570
 Vibration    18          0.603              1.952              3.544
 Vibration    19          0.603              1.951              3.506
 Vibration    20          0.605              1.945              3.349
 Vibration    21          0.607              1.939              3.232
 Vibration    22          0.607              1.938              3.208
 Vibration    23          0.608              1.935              3.141
 Vibration    24          0.609              1.934              3.119
 Vibration    25          0.610              1.929              3.029
 Vibration    26          0.611              1.927              2.998
 Vibration    27          0.612              1.923              2.937
 Vibration    28          0.613              1.920              2.895
 Vibration    29          0.614              1.917              2.855
 Vibration    30          0.614              1.915              2.822
 Vibration    31          0.615              1.914              2.813
 Vibration    32          0.616              1.910              2.764
 Vibration    33          0.616              1.908              2.741
 Vibration    34          0.618              1.905              2.696
 Vibration    35          0.619              1.901              2.657
 Vibration    36          0.619              1.900              2.641
 Vibration    37          0.622              1.891              2.551
 Vibration    38          0.622              1.889              2.528
 Vibration    39          0.623              1.887              2.504
 Vibration    40          0.623              1.886              2.498
 Vibration    41          0.625              1.880              2.441
 Vibration    42          0.628              1.870              2.351
 Vibration    43          0.634              1.853              2.223
 Vibration    44          0.635              1.849              2.193
 Vibration    45          0.636              1.844              2.163
 Vibration    46          0.637              1.841              2.142
 Vibration    47          0.639              1.836              2.109
 Vibration    48          0.641              1.830              2.071
 Vibration    49          0.644              1.820              2.009
 Vibration    50          0.645              1.816              1.987
 Vibration    51          0.646              1.813              1.971
 Vibration    52          0.648              1.808              1.944
 Vibration    53          0.650              1.803              1.917
 Vibration    54          0.652              1.797              1.887
 Vibration    55          0.657              1.781              1.809
 Vibration    56          0.661              1.768              1.754
 Vibration    57          0.662              1.764              1.736
 Vibration    58          0.663              1.761              1.722
 Vibration    59          0.666              1.753              1.692
 Vibration    60          0.669              1.744              1.656
 Vibration    61          0.671              1.736              1.624
 Vibration    62          0.675              1.726              1.587
 Vibration    63          0.679              1.714              1.547
 Vibration    64          0.681              1.707              1.521
 Vibration    65          0.683              1.700              1.500
 Vibration    66          0.686              1.694              1.479
 Vibration    67          0.687              1.691              1.471
 Vibration    68          0.688              1.687              1.456
 Vibration    69          0.693              1.671              1.409
 Vibration    70          0.694              1.670              1.405
 Vibration    71          0.696              1.664              1.389
 Vibration    72          0.699              1.654              1.362
 Vibration    73          0.701              1.650              1.350
 Vibration    74          0.703              1.642              1.329
 Vibration    75          0.709              1.627              1.289
 Vibration    76          0.714              1.613              1.253
 Vibration    77          0.715              1.609              1.244
 Vibration    78          0.718              1.600              1.223
 Vibration    79          0.721              1.591              1.201
 Vibration    80          0.726              1.577              1.170
 Vibration    81          0.728              1.572              1.160
 Vibration    82          0.732              1.563              1.139
 Vibration    83          0.739              1.541              1.095
 Vibration    84          0.748              1.519              1.051
 Vibration    85          0.763              1.477              0.974
 Vibration    86          0.772              1.454              0.936
 Vibration    87          0.775              1.447              0.924
 Vibration    88          0.779              1.437              0.907
 Vibration    89          0.781              1.432              0.900
 Vibration    90          0.782              1.428              0.895
 Vibration    91          0.789              1.410              0.866
 Vibration    92          0.792              1.402              0.854
 Vibration    93          0.794              1.399              0.850
 Vibration    94          0.796              1.392              0.840
 Vibration    95          0.804              1.374              0.814
 Vibration    96          0.808              1.363              0.799
 Vibration    97          0.810              1.358              0.792
 Vibration    98          0.814              1.349              0.779
 Vibration    99          0.815              1.345              0.775
 Vibration   100          0.822              1.329              0.754
 Vibration   101          0.828              1.315              0.735
 Vibration   102          0.829              1.312              0.732
 Vibration   103          0.835              1.298              0.714
 Vibration   104          0.845              1.274              0.686
 Vibration   105          0.850              1.261              0.671
 Vibration   106          0.911              1.128              0.534
 Vibration   107          0.917              1.115              0.521
 Vibration   108          0.924              1.101              0.509
 Vibration   109          0.927              1.095              0.503

 Optimization completed.
    -- Stationary point found.
 Normal termination of Gaussian 16 at Tue Dec 20 15:49:33 2022.
