 Gaussian 16, Revision C.01,
 Gaussian 16:  ES64L-G16RevC.01  3-Jul-2019

 ---------------------------------------
 # opt freq b3lyp/gen nosymm pseudo=read
 ---------------------------------------

 -------------------
 Title Card Required
 -------------------
 Symbolic Z-matrix:
 Charge =  0 Multiplicity = 1

 SCF Done:  E(RB3LYP) =  -11164.7927942     A.U. after   46 cycles
 SCF Done:  E(RB3LYP) =  -11164.8135479     A.U. after   25 cycles
 SCF Done:  E(RB3LYP) =  -11164.8361113     A.U. after   25 cycles
 SCF Done:  E(RB3LYP) =  -11164.8502223     A.U. after   25 cycles
 SCF Done:  E(RB3LYP) =  -11164.8646919     A.U. after   25 cycles
 SCF Done:  E(RB3LYP) =  -11164.8700999     A.U. after   24 cycles
 SCF Done:  E(RB3LYP) =  -11164.8744269     A.U. after   23 cycles
 SCF Done:  E(RB3LYP) =  -11164.8782735     A.U. after   23 cycles
 SCF Done:  E(RB3LYP) =  -11164.8794619     A.U. after   22 cycles
 SCF Done:  E(RB3LYP) =  -11164.8803587     A.U. after   21 cycles
 SCF Done:  E(RB3LYP) =  -11164.8812632     A.U. after   18 cycles
 SCF Done:  E(RB3LYP) =  -11164.8812809     A.U. after   17 cycles
 SCF Done:  E(RB3LYP) =  -11164.8812860     A.U. after   16 cycles
 SCF Done:  E(RB3LYP) =  -11164.8812906     A.U. after   15 cycles
 SCF Done:  E(RB3LYP) =  -11164.8812926     A.U. after   15 cycles
 SCF Done:  E(RB3LYP) =  -11164.8812942     A.U. after   14 cycles
 SCF Done:  E(RB3LYP) =  -11164.8812953     A.U. after   15 cycles
 SCF Done:  E(RB3LYP) =  -11164.8812960     A.U. after   14 cycles
 SCF Done:  E(RB3LYP) =  -11164.8812964     A.U. after   14 cycles
 Optimization completed.
    -- Stationary point found.
 Normal termination of Gaussian 16 at Mon Dec 19 17:17:48 2022.

 ------------------------------------------------------------------
 #N Geom=AllCheck Guess=TCheck SCRF=Check GenChk RB3LYP/ChkBas Freq
 ------------------------------------------------------------------

 Structure from the checkpoint file:  "/home/chesagar/scratch/Gau-146098.chk"
 -------------------
 Title Card Required
 -------------------
 Charge =  0 Multiplicity = 1

                          Input orientation:
 ---------------------------------------------------------------------
 Center     Atomic      Atomic             Coordinates (Angstroms)
 Number     Number       Type             X           Y           Z
 ---------------------------------------------------------------------
      1         42           0        0.250297    1.417347   12.154574
      2         16           0        1.041012    3.620389   12.430108
      3         16           0       -1.989771    1.849515   12.822096
      4         16           0       -0.222338    0.891928    9.872922
      5         16           0        2.289641   -0.028910   11.716526
      6         42           0       -1.999378    2.349140   10.564901
      7         16           0       -2.637378    1.985867    8.093093
      8         16           0       -1.342850    4.465623   10.342332
      9         42           0        0.805750    3.111036   10.055848
     10         16           0        0.372063    3.211215    7.540179
     11         16           0        2.887074    2.072810    9.287930
     12         42           0        2.914090    2.423729   11.641142
     13         42           0       -1.679269    4.397631    7.633736
     14         16           0        3.857869    2.168841   14.028249
     15         16           0        4.382458    4.267085   11.619830
     16         16           0       -3.963191    5.337759    8.390814
     17         16           0       -0.925437    6.700214    7.706322
     18         42           0       -4.429495    3.202051    8.814618
     19         16           0       -6.277791    2.590410    7.988265
     20         16           0       -4.409923    2.863541   11.032621
     21         42           0        2.538284    0.386400   13.973887
     22         16           0        3.344882   -1.245749   15.059888
     23         16           0        0.491342    0.919246   14.656248
     24         42           0        1.146915    5.495356    7.166293
     25         16           0        0.777644    5.003463    4.760249
     26         16           0        1.426578    5.558159    9.752265
     27         42           0        3.355734    4.430260    9.513433
     28         16           0        3.473191    4.272067    7.016762
     29         16           0        4.779288    6.511566    9.476946
     30         42           0        4.215920    6.413679    7.349675
     31         16           0        5.902909    6.947814    6.197797
     32         16           0        2.308933    7.787219    7.195017
     33         42           0        1.674762    7.171357    4.940313
     34         16           0        3.363483    7.203332    3.651288
     35         16           0        0.008066    8.441122    4.416231
     36         42           0       -1.310511    6.147057    5.478190
     37         16           0       -2.239861    4.001034    5.473949
     38         16           0       -2.997516    7.248744    4.765587
 ---------------------------------------------------------------------

 SCF Done:  E(RB3LYP) =  -11164.8812964     A.U. after    3 cycles

 Alpha  occ. eigenvalues --  -88.93437 -88.93318 -88.93041 -88.92757 -88.92731
 Alpha  occ. eigenvalues --  -88.92651 -88.92094 -88.91877 -88.91830 -88.91745
 Alpha  occ. eigenvalues --  -88.91718 -88.91285 -88.91009 -88.90895 -88.90418
 Alpha  occ. eigenvalues --  -88.90328 -88.90286 -88.90149 -88.90046 -88.90045
 Alpha  occ. eigenvalues --  -88.89416 -88.89137 -88.89115 -88.88940 -88.88403
 Alpha  occ. eigenvalues --  -88.88280  -8.00854  -8.00761  -8.00439  -8.00272
 Alpha  occ. eigenvalues --   -8.00195  -8.00012  -7.99559  -7.99517  -7.99299
 Alpha  occ. eigenvalues --   -7.99268  -7.99108  -7.98733  -7.98573  -7.98427
 Alpha  occ. eigenvalues --   -7.98287  -7.98007  -7.97950  -7.97918  -7.97748
 Alpha  occ. eigenvalues --   -7.97625  -7.97299  -7.96886  -7.96859  -7.96791
 Alpha  occ. eigenvalues --   -7.96220  -7.96179  -5.96896  -5.96863  -5.96833
 Alpha  occ. eigenvalues --   -5.96751  -5.96713  -5.96604  -5.96508  -5.96449
 Alpha  occ. eigenvalues --   -5.96298  -5.96277  -5.96275  -5.96244  -5.96134
 Alpha  occ. eigenvalues --   -5.96125  -5.96107  -5.96075  -5.96009  -5.95895
 Alpha  occ. eigenvalues --   -5.95626  -5.95591  -5.95529  -5.95470  -5.95404
 Alpha  occ. eigenvalues --   -5.95372  -5.95361  -5.95284  -5.95255  -5.95253
 Alpha  occ. eigenvalues --   -5.95186  -5.95158  -5.95127  -5.95084  -5.95028
 Alpha  occ. eigenvalues --   -5.94780  -5.94705  -5.94619  -5.94603  -5.94567
 Alpha  occ. eigenvalues --   -5.94500  -5.94468  -5.94377  -5.94270  -5.94256
 Alpha  occ. eigenvalues --   -5.94219  -5.94183  -5.94112  -5.94034  -5.94019
 Alpha  occ. eigenvalues --   -5.93954  -5.93877  -5.93850  -5.93829  -5.93800
 Alpha  occ. eigenvalues --   -5.93779  -5.93763  -5.93747  -5.93717  -5.93532
 Alpha  occ. eigenvalues --   -5.93512  -5.93491  -5.93270  -5.93253  -5.93186
 Alpha  occ. eigenvalues --   -5.93001  -5.92974  -5.92868  -5.92837  -5.92809
 Alpha  occ. eigenvalues --   -5.92713  -5.92663  -5.92640  -5.92611  -5.92304
 Alpha  occ. eigenvalues --   -5.92162  -5.92115  -5.92100  -5.92080  -5.92070
 Alpha  occ. eigenvalues --   -2.59217  -2.58557  -2.57725  -2.57497  -2.57064
 Alpha  occ. eigenvalues --   -2.56973  -2.56917  -2.56279  -2.55436  -2.55249
 Alpha  occ. eigenvalues --   -2.54686  -2.54464  -1.61966  -1.61580  -1.61289
 Alpha  occ. eigenvalues --   -1.61088  -1.60914  -1.60824  -1.60535  -1.60248
 Alpha  occ. eigenvalues --   -1.60228  -1.60107  -1.59957  -1.59894  -1.59814
 Alpha  occ. eigenvalues --   -1.59515  -1.59446  -1.59374  -1.59296  -1.59261
 Alpha  occ. eigenvalues --   -1.59042  -1.59008  -1.58812  -1.58774  -1.58566
 Alpha  occ. eigenvalues --   -1.57934  -1.57796  -1.57689  -1.57538  -1.57413
 Alpha  occ. eigenvalues --   -1.57124  -1.56992  -1.56972  -1.56680  -1.56470
 Alpha  occ. eigenvalues --   -1.56411  -1.56047  -1.55991  -0.78381  -0.76682
 Alpha  occ. eigenvalues --   -0.76146  -0.75807  -0.75333  -0.74805  -0.74667
 Alpha  occ. eigenvalues --   -0.74498  -0.74358  -0.74253  -0.74042  -0.73760
 Alpha  occ. eigenvalues --   -0.73202  -0.73007  -0.72762  -0.72402  -0.72121
 Alpha  occ. eigenvalues --   -0.72039  -0.71883  -0.71622  -0.71434  -0.70727
 Alpha  occ. eigenvalues --   -0.70521  -0.70145  -0.69480  -0.69442  -0.45803
 Alpha  occ. eigenvalues --   -0.45476  -0.45380  -0.44257  -0.43772  -0.43687
 Alpha  occ. eigenvalues --   -0.43353  -0.43197  -0.43016  -0.42728  -0.42465
 Alpha  occ. eigenvalues --   -0.41736  -0.41663  -0.41405  -0.41183  -0.41032
 Alpha  occ. eigenvalues --   -0.40828  -0.40691  -0.40520  -0.40361  -0.40115
 Alpha  occ. eigenvalues --   -0.40051  -0.39787  -0.39622  -0.39476  -0.39360
 Alpha  occ. eigenvalues --   -0.39130  -0.38916  -0.38798  -0.38597  -0.38429
 Alpha  occ. eigenvalues --   -0.38229  -0.37858  -0.37846  -0.37660  -0.37372
 Alpha  occ. eigenvalues --   -0.37237  -0.37138  -0.37008  -0.36894  -0.36470
 Alpha  occ. eigenvalues --   -0.36256  -0.36144  -0.36004  -0.35879  -0.35768
 Alpha  occ. eigenvalues --   -0.35677  -0.35424  -0.35241  -0.35010  -0.34944
 Alpha  occ. eigenvalues --   -0.34883  -0.34523  -0.34354  -0.34175  -0.33972
 Alpha  occ. eigenvalues --   -0.33897  -0.33442  -0.33168  -0.32818  -0.32660
 Alpha  occ. eigenvalues --   -0.32558  -0.32339  -0.31914  -0.31781  -0.31523
 Alpha  occ. eigenvalues --   -0.31337  -0.30996  -0.30907  -0.30385  -0.30080
 Alpha  occ. eigenvalues --   -0.29707  -0.29688  -0.29574  -0.29134  -0.29028
 Alpha  occ. eigenvalues --   -0.28546  -0.28372  -0.27977  -0.27365  -0.27231
 Alpha  occ. eigenvalues --   -0.26716  -0.26447  -0.26022  -0.25494  -0.25151
 Alpha  occ. eigenvalues --   -0.24999  -0.24049
 Alpha virt. eigenvalues --   -0.18342  -0.17900  -0.17746  -0.16853  -0.16539
 Alpha virt. eigenvalues --   -0.16320  -0.15917  -0.15574  -0.15208  -0.15054
 Alpha virt. eigenvalues --   -0.14826  -0.14683  -0.14327  -0.14245  -0.13979

 Mulliken charges:
               1
     1  Mo  -0.261805
     2  S    0.424170
     3  S    0.079577
     4  S    0.208432
     5  S    0.083391
     6  Mo  -0.150152
     7  S    0.081389
     8  S    0.201739
     9  Mo  -0.659273
    10  S    0.219670
    11  S    0.217973
    12  Mo  -0.274030
    13  Mo  -0.597492
    14  S   -0.027892
    15  S    0.063422
    16  S    0.054288
    17  S    0.267037
    18  Mo   0.268213
    19  S   -0.173903
    20  S    0.025329
    21  Mo   0.300812
    22  S   -0.192953
    23  S   -0.026494
    24  Mo  -0.657371
    25  S    0.191193
    26  S    0.213459
    27  Mo  -0.156207
    28  S    0.121636
    29  S    0.059909
    30  Mo   0.242659
    31  S   -0.138424
    32  S    0.065374
    33  Mo   0.206686
    34  S   -0.175822
    35  S   -0.065112
    36  Mo  -0.087540
    37  S    0.179596
    38  S   -0.131483
 Sum of Mulliken charges =  -0.00000

 Dipole moment (field-independent basis, Debye):
    X=              1.0367    Y=             -0.0313    Z=             -1.2692  Tot=              1.6390
 Quadrupole moment (field-independent basis, Debye-Ang):
   XX=           -617.4511   YY=           -616.8480   ZZ=           -663.3416
   XY=             11.6053   XZ=              1.6234   YZ=              4.5809

  Exact polarizability:    1280.296      66.349     926.777     106.223    -472.042    1193.513
 Approx polarizability:    4397.468     259.438    2954.787     212.724   -1052.589    3482.693

                      1                      2                      3
                      A                      A                      A
 Frequencies --     24.0465                30.9331                43.0244
 Red. masses --     40.5041                38.8720                39.5189
 Frc consts  --      0.0138                 0.0219                 0.0431
 IR Inten    --      0.1033                 0.2494                 0.1444

                      4                      5                      6
                      A                      A                      A
 Frequencies --     44.4444                46.3992                54.0243
 Red. masses --     40.3628                41.6195                38.8535
 Frc consts  --      0.0470                 0.0528                 0.0668
 IR Inten    --      0.1886                 0.0954                 0.3629

                      7                      8                      9
                      A                      A                      A
 Frequencies --     58.2045                62.8732                67.3583
 Red. masses --     40.6483                48.1575                37.3261
 Frc consts  --      0.0811                 0.1122                 0.0998
 IR Inten    --      1.0688                 0.6659                 0.4766

                     10                     11                     12
                      A                      A                      A
 Frequencies --     71.8129                74.1213                78.5122
 Red. masses --     39.6016                48.5934                41.7659
 Frc consts  --      0.1203                 0.1573                 0.1517
 IR Inten    --      0.3890                 2.1062                 0.1774

                     13                     14                     15
                      A                      A                      A
 Frequencies --     80.5866                87.3220                89.4505
 Red. masses --     38.6681                39.0504                42.4625
 Frc consts  --      0.1480                 0.1754                 0.2002
 IR Inten    --      1.1409                 0.9563                 1.8248

                     16                     17                     18
                      A                      A                      A
 Frequencies --     90.6050                93.4512                98.8750
 Red. masses --     42.6307                43.5296                39.6158
 Frc consts  --      0.2062                 0.2240                 0.2282
 IR Inten    --      2.9268                 1.1967                 0.0791

                     19                     20                     21
                      A                      A                      A
 Frequencies --    100.8306               103.5005               107.4079
 Red. masses --     42.3781                40.6520                43.7277
 Frc consts  --      0.2538                 0.2566                 0.2972
 IR Inten    --      3.8053                 1.6603                 1.4472

                     22                     23                     24
                      A                      A                      A
 Frequencies --    112.9347               115.8871               119.9258
 Red. masses --     45.5418                48.2098                46.5252
 Frc consts  --      0.3422                 0.3815                 0.3942
 IR Inten    --      0.4263                 0.4206                 0.2340

                     25                     26                     27
                      A                      A                      A
 Frequencies --    121.2491               122.3872               125.1094
 Red. masses --     47.2224                45.7411                45.7532
 Frc consts  --      0.4090                 0.4037                 0.4219
 IR Inten    --      3.1966                 0.9665                 0.6868

                     28                     29                     30
                      A                      A                      A
 Frequencies --    133.9918               136.4544               139.9709
 Red. masses --     46.4690                50.2301                48.3297
 Frc consts  --      0.4916                 0.5510                 0.5579
 IR Inten    --      0.2936                 2.9065                 2.0732

                     31                     32                     33
                      A                      A                      A
 Frequencies --    140.4191               144.4720               150.7202
 Red. masses --     47.8341                46.1583                47.7046
 Frc consts  --      0.5557                 0.5676                 0.6385
 IR Inten    --      2.1387                 0.2174                 0.6033

                     34                     35                     36
                      A                      A                      A
 Frequencies --    151.8620               153.5510               159.2663
 Red. masses --     44.3899                53.1737                44.9934
 Frc consts  --      0.6032                 0.7387                 0.6724
 IR Inten    --      1.4304                 0.3405                 0.2294

                     37                     38                     39
                      A                      A                      A
 Frequencies --    161.8174               162.9449               168.2650
 Red. masses --     49.0908                42.1661                39.6701
 Frc consts  --      0.7574                 0.6596                 0.6618
 IR Inten    --      3.8514                 4.2202                 1.0008

                     40                     41                     42
                      A                      A                      A
 Frequencies --    168.9155               170.1331               172.9788
 Red. masses --     46.5697                48.0908                41.7622
 Frc consts  --      0.7829                 0.8201                 0.7362
 IR Inten    --      4.6865                 0.8304                 2.0476

                     43                     44                     45
                      A                      A                      A
 Frequencies --    177.4371               185.2700               190.5528
 Red. masses --     42.3954                44.4935                43.3888
 Frc consts  --      0.7864                 0.8998                 0.9282
 IR Inten    --      5.0058                15.8725                 4.8362

                     46                     47                     48
                      A                      A                      A
 Frequencies --    195.3147               197.1000               201.8815
 Red. masses --     41.0972                52.1249                35.3300
 Frc consts  --      0.9237                 1.1931                 0.8484
 IR Inten    --      1.6633                 5.8219                 0.0377

                     49                     50                     51
                      A                      A                      A
 Frequencies --    206.3607               212.2588               213.8713
 Red. masses --     35.2827                49.2014                39.9817
 Frc consts  --      0.8852                 1.3060                 1.0775
 IR Inten    --      1.3820                 1.5905                 7.0696

                     52                     53                     54
                      A                      A                      A
 Frequencies --    217.2020               219.6806               223.7454
 Red. masses --     38.5444                47.5080                39.9872
 Frc consts  --      1.0714                 1.3508                 1.1794
 IR Inten    --      1.0489                 2.8726                 2.7672

                     55                     56                     57
                      A                      A                      A
 Frequencies --    229.4921               233.4613               239.9278
 Red. masses --     34.5582                41.7139                38.3841
 Frc consts  --      1.0724                 1.3396                 1.3019
 IR Inten    --      2.4111                 0.8261                 3.3571

                     58                     59                     60
                      A                      A                      A
 Frequencies --    245.0354               248.6102               253.0891
 Red. masses --     35.7969                39.2721                36.0201
 Frc consts  --      1.2663                 1.4301                 1.3594
 IR Inten    --      6.2192                 1.1319                 0.5018

                     61                     62                     63
                      A                      A                      A
 Frequencies --    255.9080               258.5853               263.7050
 Red. masses --     35.9289                41.5558                37.0606
 Frc consts  --      1.3863                 1.6372                 1.5184
 IR Inten    --      1.9541                 7.0681                 0.6360

                     64                     65                     66
                      A                      A                      A
 Frequencies --    266.4539               273.0440               276.7110
 Red. masses --     34.2130                37.3627                35.2113
 Frc consts  --      1.4312                 1.6412                 1.5885
 IR Inten    --      1.1904                 9.6013                 1.3074

                     67                     68                     69
                      A                      A                      A
 Frequencies --    290.9982               296.4958               302.3044
 Red. masses --     36.3598                39.7945                34.7959
 Frc consts  --      1.8141                 2.0612                 1.8736
 IR Inten    --      4.1706                 2.0226                16.1757

                     70                     71                     72
                      A                      A                      A
 Frequencies --    302.9594               307.3598               309.6093
 Red. masses --     36.9545                37.5826                34.8187
 Frc consts  --      1.9984                 2.0919                 1.9665
 IR Inten    --      0.9520                 7.9887                 1.8661

                     73                     74                     75
                      A                      A                      A
 Frequencies --    313.8634               317.2252               319.3479
 Red. masses --     35.7013                39.7712                38.2539
 Frc consts  --      2.0721                 2.3581                 2.2986
 IR Inten    --      4.2168                 2.2210                 1.7022

                     76                     77                     78
                      A                      A                      A
 Frequencies --    329.7203               333.2078               336.2627
 Red. masses --     36.6005                36.9935                36.7482
 Frc consts  --      2.3444                 2.4200                 2.4482
 IR Inten    --      0.2442                 2.7239                 2.8735

                     79                     80                     81
                      A                      A                      A
 Frequencies --    344.0347               346.0940               355.3648
 Red. masses --     36.5231                37.8169                42.8334
 Frc consts  --      2.5470                 2.6689                 3.1870
 IR Inten    --      3.3486                10.3312                 0.3909

                     82                     83                     84
                      A                      A                      A
 Frequencies --    364.0787               373.7343               388.0380
 Red. masses --     40.3973                35.6924                36.3640
 Frc consts  --      3.1550                 2.9373                 3.2260
 IR Inten    --      3.1170                 0.9242                 1.0117

                     85                     86                     87
                      A                      A                      A
 Frequencies --    405.5910               408.0295               410.2468
 Red. masses --     36.4427                35.9431                36.4931
 Frc consts  --      3.5321                 3.5257                 3.6187
 IR Inten    --      5.6926                 1.4894                 1.0444

                     88                     89                     90
                      A                      A                      A
 Frequencies --    412.6551               415.6586               424.5114
 Red. masses --     36.6098                37.4974                36.7318
 Frc consts  --      3.6730                 3.8170                 3.9001
 IR Inten    --      0.9275                 3.0828                 2.9231

                     91                     92                     93
                      A                      A                      A
 Frequencies --    428.4549               431.5170               438.6614
 Red. masses --     34.6968                33.7425                38.0664
 Frc consts  --      3.7528                 3.7019                 4.3157
 IR Inten    --      1.4919                 1.0895                 3.4108

                     94                     95                     96
                      A                      A                      A
 Frequencies --    441.0463               446.5053               450.0486
 Red. masses --     37.3834                38.5983                39.5048
 Frc consts  --      4.2845                 4.5339                 4.7143
 IR Inten    --      2.3218                 5.0221                 4.9517

                     97                     98                     99
                      A                      A                      A
 Frequencies --    455.3579               460.9786               466.9274
 Red. masses --     40.1288                39.2692                38.6538
 Frc consts  --      4.9024                 4.9166                 4.9652
 IR Inten    --     13.7272                 1.4162                 3.6100

                    100                    101                    102
                      A                      A                      A
 Frequencies --    470.1412               472.3468               480.1400
 Red. masses --     40.0533                39.7079                39.1014
 Frc consts  --      5.2161                 5.2197                 5.3110
 IR Inten    --     20.6818                15.2249                19.1903

                    103                    104                    105
                      A                      A                      A
 Frequencies --    513.8497               524.1756               552.1088
 Red. masses --     37.5071                38.7732                40.5805
 Frc consts  --      5.8349                 6.2768                 7.2881
 IR Inten    --      6.1755               123.3468                 9.0605

                    106                    107                    108
                      A                      A                      A
 Frequencies --    563.4754               566.9829               568.5971
 Red. masses --     40.0279                39.8980                39.9131
 Frc consts  --      7.4880                 7.5569                 7.6028
 IR Inten    --    236.5651               245.8164                62.9889

 - Thermochemistry -
 -------------------
 Temperature   298.150 Kelvin.  Pressure   1.00000 Atm.
 Atom     1 has atomic number 42 and mass  97.90550

 Molecular mass:  2006.13987 amu.
 Principal axes and moments of inertia in atomic units:
                           1         2         3
     Eigenvalues --  ******************************
           X            0.09908   0.97971  -0.17423
           Y           -0.58955   0.19885   0.78287
           Z            0.80163   0.02515   0.59729
 This molecule is an asymmetric top.
 Rotational symmetry number  1.
 Warning -- assumption of classical behavior for rotation
           may cause significant error
 Rotational temperatures (Kelvin)      0.00144     0.00093     0.00061
 Rotational constants (GHZ):           0.03011     0.01928     0.01268
 Zero-point vibrational energy     162479.5 (Joules/Mol)
                                   38.83352 (Kcal/Mol)
 Warning -- explicit consideration of 108 degrees of freedom as
           vibrations may cause significant error
 Vibrational temperatures:     34.60    44.51    61.90    63.95    66.76
          (Kelvin)             77.73    83.74    90.46    96.91   103.32
                              106.64   112.96   115.95   125.64   128.70
                              130.36   134.46   142.26   145.07   148.91
                              154.54   162.49   166.74   172.55   174.45
                              176.09   180.00   192.78   196.33   201.39
                              202.03   207.86   216.85   218.50   220.93
                              229.15   232.82   234.44   242.10   243.03
                              244.78   248.88   255.29   266.56   274.16
                              281.01   283.58   290.46   296.91   305.39
                              307.71   312.51   316.07   321.92   330.19
                              335.90   345.20   352.55   357.69   364.14
                              368.19   372.05   379.41   383.37   392.85
                              398.13   418.68   426.59   434.95   435.89
                              442.22   445.46   451.58   456.42   459.47
                              474.39   479.41   483.81   494.99   497.95
                              511.29   523.83   537.72   558.30   583.55
                              587.06   590.25   593.72   598.04   610.78
                              616.45   620.86   631.14   634.57   642.42
                              647.52   655.16   663.25   671.80   676.43
                              679.60   690.81   739.32   754.17   794.36
                              810.72   815.76   818.08

 Zero-point correction=                           0.061885 (Hartree/Particle)
 Thermal correction to Energy=                    0.120513
 Thermal correction to Enthalpy=                  0.121457
 Thermal correction to Gibbs Free Energy=        -0.032770
 Sum of electronic and zero-point Energies=         -11164.819411
 Sum of electronic and thermal Energies=            -11164.760784
 Sum of electronic and thermal Enthalpies=          -11164.759840
 Sum of electronic and thermal Free Energies=       -11164.914067

                     E (Thermal)             CV                S
                      KCal/Mol        Cal/Mol-Kelvin    Cal/Mol-Kelvin
 Total                   75.623            191.210            324.598
 Electronic               0.000              0.000              0.000
 Translational            0.889              2.981             48.657
 Rotational               0.889              2.981             41.897
 Vibrational             73.845            185.248            234.044
 Vibration     1          0.593              1.985              6.268
 Vibration     2          0.594              1.984              5.769
 Vibration     3          0.595              1.980              5.115
 Vibration     4          0.595              1.980              5.050
 Vibration     5          0.595              1.979              4.965
 Vibration     6          0.596              1.976              4.664
 Vibration     7          0.596              1.974              4.517
 Vibration     8          0.597              1.972              4.365
 Vibration     9          0.598              1.970              4.229
 Vibration    10          0.598              1.967              4.103
 Vibration    11          0.599              1.966              4.041
 Vibration    12          0.600              1.964              3.928
 Vibration    13          0.600              1.962              3.877
 Vibration    14          0.601              1.958              3.719
 Vibration    15          0.602              1.957              3.672
 Vibration    16          0.602              1.956              3.647
 Vibration    17          0.602              1.954              3.586
 Vibration    18          0.604              1.950              3.476
 Vibration    19          0.604              1.948              3.438
 Vibration    20          0.605              1.946              3.387
 Vibration    21          0.606              1.943              3.315
 Vibration    22          0.607              1.939              3.218
 Vibration    23          0.608              1.936              3.168
 Vibration    24          0.609              1.933              3.102
 Vibration    25          0.609              1.931              3.080
 Vibration    26          0.610              1.930              3.062
 Vibration    27          0.610              1.928              3.020
 Vibration    28          0.613              1.919              2.888
 Vibration    29          0.614              1.917              2.853
 Vibration    30          0.615              1.913              2.804
 Vibration    31          0.615              1.913              2.798
 Vibration    32          0.616              1.909              2.744
 Vibration    33          0.618              1.902              2.663
 Vibration    34          0.619              1.901              2.649
 Vibration    35          0.619              1.899              2.628
 Vibration    36          0.621              1.892              2.558
 Vibration    37          0.622              1.889              2.528
 Vibration    38          0.623              1.888              2.515
 Vibration    39          0.625              1.882              2.455
 Vibration    40          0.625              1.881              2.448
 Vibration    41          0.625              1.879              2.434
 Vibration    42          0.626              1.876              2.403
 Vibration    43          0.628              1.870              2.355
 Vibration    44          0.631              1.860              2.275
 Vibration    45          0.634              1.853              2.222
 Vibration    46          0.636              1.846              2.177
 Vibration    47          0.636              1.844              2.160
 Vibration    48          0.639              1.837              2.116
 Vibration    49          0.641              1.831              2.076
 Vibration    50          0.643              1.822              2.024
 Vibration    51          0.644              1.820              2.010
 Vibration    52          0.646              1.815              1.982
 Vibration    53          0.647              1.811              1.962
 Vibration    54          0.649              1.805              1.929
 Vibration    55          0.652              1.796              1.883
 Vibration    56          0.654              1.790              1.852
 Vibration    57          0.657              1.779              1.803
 Vibration    58          0.660              1.771              1.766
 Vibration    59          0.662              1.765              1.740
 Vibration    60          0.664              1.758              1.709
 Vibration    61          0.666              1.753              1.690
 Vibration    62          0.667              1.748              1.671
 Vibration    63          0.670              1.739              1.637
 Vibration    64          0.672              1.735              1.619
 Vibration    65          0.676              1.723              1.577
 Vibration    66          0.678              1.716              1.554
 Vibration    67          0.687              1.690              1.468
 Vibration    68          0.690              1.680              1.437
 Vibration    69          0.694              1.669              1.404
 Vibration    70          0.694              1.668              1.400
 Vibration    71          0.697              1.660              1.377
 Vibration    72          0.699              1.655              1.364
 Vibration    73          0.702              1.647              1.342
 Vibration    74          0.704              1.641              1.324
 Vibration    75          0.705              1.637              1.313
 Vibration    76          0.713              1.616              1.261
 Vibration    77          0.715              1.609              1.244
 Vibration    78          0.717              1.603              1.230
 Vibration    79          0.723              1.587              1.193
 Vibration    80          0.724              1.583              1.184
 Vibration    81          0.731              1.564              1.142
 Vibration    82          0.738              1.546              1.105
 Vibration    83          0.745              1.526              1.064
 Vibration    84          0.756              1.496              1.008
 Vibration    85          0.771              1.458              0.942
 Vibration    86          0.773              1.453              0.934
 Vibration    87          0.774              1.448              0.926
 Vibration    88          0.776              1.443              0.917
 Vibration    89          0.779              1.436              0.907
 Vibration    90          0.787              1.417              0.877
 Vibration    91          0.790              1.408              0.864
 Vibration    92          0.793              1.402              0.854
 Vibration    93          0.799              1.386              0.831
 Vibration    94          0.801              1.381              0.823
 Vibration    95          0.806              1.369              0.806
 Vibration    96          0.809              1.361              0.796
 Vibration    97          0.814              1.349              0.780
 Vibration    98          0.819              1.337              0.763
 Vibration    99          0.824              1.323              0.746
 Vibration   100          0.827              1.316              0.737
 Vibration   101          0.829              1.311              0.731
 Vibration   102          0.837              1.294              0.710
 Vibration   103          0.869              1.219              0.624
 Vibration   104          0.879              1.196              0.600
 Vibration   105          0.907              1.135              0.540
 Vibration   106          0.919              1.110              0.517
 Vibration   107          0.923              1.103              0.510
 Vibration   108          0.925              1.099              0.507

                           ! Non-Optimized Parameters !
 Normal termination of Gaussian 16 at Mon Dec 19 17:46:29 2022.
