 Gaussian 16, Revision C.01,
 Gaussian 16:  ES64L-G16RevC.01  3-Jul-2019

 ---------------------------
 # opt freq b3lyp/6-31G(d,p)
 ---------------------------

 -------------------
 Title Card Required
 -------------------
 Symbolic Z-matrix:
 Charge =  0 Multiplicity = 1

 SCF Done:  E(RB3LYP) =  -399.391523599     A.U. after    9 cycles
 SCF Done:  E(RB3LYP) =  -399.391623329     A.U. after    9 cycles
 SCF Done:  E(RB3LYP) =  -399.391624255     A.U. after    6 cycles
 Optimization completed.
    -- Stationary point found.

 1\1\GINC-NODE7-IB\FOpt\RB3LYP\6-31G(d,p)\H2S1\CHESAGAR\04-Nov-2021\0\\
 # opt freq b3lyp/6-31G(d,p)\\Title Card Required\\0,1\S,2.3039239002,-
 1.1070682845,-2.4211592062\H,2.7605525834,-0.114351147,-3.2100857355\H
 ,1.0165435164,-0.8200845685,-2.6978340583\\Version=ES64L-G16RevC.01\St
 ate=1-A'\HF=-399.3916243\RMSD=3.721e-09\RMSF=1.101e-05\Dipole=-0.24572
 87,0.3784914,-0.3151689\Quadrupole=1.2059716,-0.3411107,-0.8648609,0.3
 58626,-0.1870423,-1.1861145\PG=CS [SG(H2S1)]\\@
 The archive entry for this job was punched.

 Normal termination of Gaussian 16 at Thu Nov  4 13:45:05 2021.

 ----------------------------------------------------------------------
 #N Geom=AllCheck Guess=TCheck SCRF=Check GenChk RB3LYP/6-31G(d,p) Freq
 ----------------------------------------------------------------------

 Structure from the checkpoint file:  "H2S.chk"
 -------------------
 Title Card Required
 -------------------
 Charge =  0 Multiplicity = 1

                         Standard orientation:
 ---------------------------------------------------------------------
 Center     Atomic      Atomic             Coordinates (Angstroms)
 Number     Number       Type             X           Y           Z
 ---------------------------------------------------------------------
      1         16           0       -0.000000    0.103388   -0.000000
      2          1           0        0.974940   -0.827146    0.000000
      3          1           0       -0.974940   -0.827068    0.000000
 ---------------------------------------------------------------------

 SCF Done:  E(RB3LYP) =  -399.391624255     A.U. after    1 cycles

 The electronic state is 1-A'.
 Alpha  occ. eigenvalues --  -88.88746  -7.95118  -5.91591  -5.91271  -5.90555
 Alpha  occ. eigenvalues --   -0.74646  -0.44954  -0.36726  -0.26180
 Alpha virt. eigenvalues --    0.02117   0.05769   0.31262   0.32709   0.34524
 Alpha virt. eigenvalues --    0.36509   0.67450   0.69408   0.73479   0.74550
 Alpha virt. eigenvalues --    0.75469   1.01204   1.17467   1.98336   2.03304

 Mulliken charges:
               1
     1  S   -0.163889
     2  H    0.081945
     3  H    0.081944
 Sum of Mulliken charges =  -0.00000

 Dipole moment (field-independent basis, Debye):
    X=             -0.0000    Y=             -1.3990    Z=              0.0000  Tot=              1.3990
 Quadrupole moment (field-independent basis, Debye-Ang):
   XX=            -12.1633   YY=            -13.4980   ZZ=            -16.5021
   XY=             -0.0001   XZ=             -0.0000   YZ=              0.0000

  Exact polarizability:      17.592      -0.001      15.747      -0.000      -0.000      11.215
 Approx polarizability:      25.631      -0.001      21.794       0.000      -0.000      14.037

                      1                      2                      3
                     A'                     A'                     A'
 Frequencies --   1223.9293              2689.3971              2709.1462
 Red. masses --      1.0396                 1.0357                 1.0400
 Frc consts  --      0.9175                 4.4136                 4.4972
 IR Inten    --      4.9095                 6.7429                 8.6410

 - Thermochemistry -
 -------------------
 Temperature   298.150 Kelvin.  Pressure   1.00000 Atm.
 Atom     1 has atomic number 16 and mass  31.97207

 Molecular mass:    33.98772 amu.
 Principal axes and moments of inertia in atomic units:
                           1         2         3
     Eigenvalues --     5.86260   6.84177  12.70437
           X            1.00000   0.00028   0.00000
           Y           -0.00028   1.00000   0.00000
           Z            0.00000  -0.00000   1.00000
 This molecule is an asymmetric top.
 Rotational symmetry number  1.
 Rotational temperatures (Kelvin)     14.77398    12.65958     6.81765
 Rotational constants (GHZ):         307.83968   263.78289   142.05674
 Zero-point vibrational energy      39611.2 (Joules/Mol)
                                    9.46730 (Kcal/Mol)
 Vibrational temperatures:   1760.96  3869.44  3897.86
          (Kelvin)

 Zero-point correction=                           0.015087 (Hartree/Particle)
 Thermal correction to Energy=                    0.017935
 Thermal correction to Enthalpy=                  0.018879
 Thermal correction to Gibbs Free Energy=        -0.005132
 Sum of electronic and zero-point Energies=           -399.376537
 Sum of electronic and thermal Energies=              -399.373689
 Sum of electronic and thermal Enthalpies=            -399.372745
 Sum of electronic and thermal Free Energies=         -399.396756

                     E (Thermal)             CV                S
                      KCal/Mol        Cal/Mol-Kelvin    Cal/Mol-Kelvin
 Total                   11.254              6.153             50.535
 Electronic               0.000              0.000              0.000
 Translational            0.889              2.981             36.501
 Rotational               0.889              2.981             13.997
 Vibrational              9.477              0.191              0.038

 Optimization completed.
    -- Stationary point found.

 1\1\GINC-NODE7-IB\Freq\RB3LYP\6-31G(d,p)\H2S1\CHESAGAR\04-Nov-2021\0\\
 #N Geom=AllCheck Guess=TCheck SCRF=Check GenChk RB3LYP/6-31G(d,p) Freq
 \\Title Card Required\\0,1\S,2.3039239002,-1.1070682845,-2.4211592062\
 H,2.7605525834,-0.114351147,-3.2100857355\H,1.0165435164,-0.8200845685
 ,-2.6978340583\\Version=ES64L-G16RevC.01\State=1-A'\HF=-399.3916243\RM
 SD=5.021e-10\RMSF=1.101e-05\ZeroPoint=0.0150871\Thermal=0.0179349\ETot
 =-399.3736893\HTot=-399.3727451\GTot=-399.3967561\Dipole=-0.2457287,0.
 3784914,-0.3151689\DipoleDeriv=-0.0098417,-0.0566488,0.0562951,-0.0566

 Normal termination of Gaussian 16 at Thu Nov  4 13:45:09 2021.
