 Gaussian 16, Revision C.01,
 Gaussian 16:  ES64L-G16RevC.01  3-Jul-2019

 ---------------------------------------
 # opt freq b3lyp/gen nosymm pseudo=read
 ---------------------------------------

 -------------------
 Title Card Required
 -------------------
 Symbolic Z-matrix:
 Charge =  0 Multiplicity = 1

 SCF Done:  E(RB3LYP) =  -9436.75483713     A.U. after   38 cycles
 SCF Done:  E(RB3LYP) =  -9436.76580323     A.U. after   22 cycles
 SCF Done:  E(RB3LYP) =  -9436.77608755     A.U. after   23 cycles
 SCF Done:  E(RB3LYP) =  -9436.78382240     A.U. after   22 cycles
 SCF Done:  E(RB3LYP) =  -9436.78683706     A.U. after   22 cycles
 SCF Done:  E(RB3LYP) =  -9436.78807882     A.U. after   21 cycles
 SCF Done:  E(RB3LYP) =  -9436.78927755     A.U. after   21 cycles
 SCF Done:  E(RB3LYP) =  -9436.78974168     A.U. after   20 cycles
 SCF Done:  E(RB3LYP) =  -9436.79010526     A.U. after   20 cycles
 SCF Done:  E(RB3LYP) =  -9436.79029917     A.U. after   20 cycles
 SCF Done:  E(RB3LYP) =  -9436.79043368     A.U. after   20 cycles
 SCF Done:  E(RB3LYP) =  -9436.79047181     A.U. after   19 cycles
 SCF Done:  E(RB3LYP) =  -9436.79050169     A.U. after   19 cycles
 SCF Done:  E(RB3LYP) =  -9436.79051277     A.U. after   18 cycles
 SCF Done:  E(RB3LYP) =  -9436.79052294     A.U. after   18 cycles
 SCF Done:  E(RB3LYP) =  -9436.79052655     A.U. after   16 cycles
 SCF Done:  E(RB3LYP) =  -9436.79052860     A.U. after   15 cycles
 SCF Done:  E(RB3LYP) =  -9436.79052974     A.U. after   15 cycles
 Optimization completed.
    -- Stationary point found.
 Normal termination of Gaussian 16 at Wed Dec 14 09:25:40 2022.

 ------------------------------------------------------------------
 #N Geom=AllCheck Guess=TCheck SCRF=Check GenChk RB3LYP/ChkBas Freq
 ------------------------------------------------------------------

 Structure from the checkpoint file:  "/localscratch/chegho/Gau-226221.chk"
 -------------------
 Title Card Required
 -------------------
 Charge =  0 Multiplicity = 1

                          Input orientation:
 ---------------------------------------------------------------------
 Center     Atomic      Atomic             Coordinates (Angstroms)
 Number     Number       Type             X           Y           Z
 ---------------------------------------------------------------------
      1         42           0        0.370702    1.784028   12.259403
      2         16           0        1.300073    3.938721   12.104720
      3         16           0       -1.647312    2.330484   13.278264
      4         16           0       -0.500516    1.001570   10.185909
      5         16           0        2.276375    0.220675   11.663910
      6         42           0       -2.154852    2.575242   10.941769
      7         16           0       -3.145924    1.910372    8.719246
      8         16           0       -1.376988    4.718395   10.613916
      9         42           0        0.525936    3.215690    9.894670
     10         16           0       -0.378344    2.921637    7.503221
     11         16           0        2.455667    1.987767    8.969008
     12         42           0        2.988306    2.617322   11.193734
     13         42           0       -2.065117    4.200570    8.464522
     14         16           0        4.363465    2.605265   13.312162
     15         16           0        4.517384    4.374158   10.627556
     16         16           0       -4.402126    5.198429    8.730716
     17         16           0       -1.666162    6.308933    7.493459
     18         42           0       -4.796061    3.192777    9.638584
     19         16           0       -6.731805    2.435371    9.225659
     20         16           0       -4.369941    3.230657   11.842405
     21         42           0        2.990236    0.892298   13.745280
     22         16           0        3.965294   -0.639643   14.837852
     23         16           0        1.147599    1.607178   14.738415
     24         42           0        0.074441    5.082275    6.489356
     25         16           0       -0.607200    4.791509    4.529537
     26         16           0        1.349905    5.551033    9.321138
     27         42           0        3.074032    4.295830    8.834059
     28         16           0        2.387980    3.835411    6.313637
     29         16           0        4.464295    6.189136    7.927371
     30         42           0        3.114081    5.970467    6.142754
     31         16           0        4.184433    6.351735    4.361369
     32         16           0        1.283964    7.269094    6.331195
 ---------------------------------------------------------------------

 SCF Done:  E(RB3LYP) =  -9436.79052974     A.U. after    2 cycles

 Alpha  occ. eigenvalues --  -88.94519 -88.93294 -88.93020 -88.92895 -88.92734
 Alpha  occ. eigenvalues --  -88.92608 -88.92482 -88.91776 -88.91591 -88.91463
 Alpha  occ. eigenvalues --  -88.90521 -88.90460 -88.90265 -88.90104 -88.89959
 Alpha  occ. eigenvalues --  -88.89864 -88.89821 -88.89135 -88.89129 -88.89096
 Alpha  occ. eigenvalues --  -88.88662 -88.88271  -8.01851  -8.00850  -8.00456
 Alpha  occ. eigenvalues --   -8.00419  -8.00076  -8.00024  -7.99981  -7.99390
 Alpha  occ. eigenvalues --   -7.99290  -7.99011  -7.98226  -7.98185  -7.97794
 Alpha  occ. eigenvalues --   -7.97764  -7.97695  -7.97688  -7.97524  -7.96877
 Alpha  occ. eigenvalues --   -7.96873  -7.96644  -7.96551  -7.96171  -5.97914
 Alpha  occ. eigenvalues --   -5.97832  -5.97733  -5.96890  -5.96834  -5.96707
 Alpha  occ. eigenvalues --   -5.96554  -5.96472  -5.96442  -5.96398  -5.96281
 Alpha  occ. eigenvalues --   -5.96273  -5.96088  -5.96084  -5.96066  -5.96007
 Alpha  occ. eigenvalues --   -5.96004  -5.96003  -5.95979  -5.95893  -5.95855
 Alpha  occ. eigenvalues --   -5.95347  -5.95330  -5.95311  -5.95281  -5.95280
 Alpha  occ. eigenvalues --   -5.95173  -5.95055  -5.94999  -5.94893  -5.94342
 Alpha  occ. eigenvalues --   -5.94272  -5.94197  -5.94136  -5.93993  -5.93989
 Alpha  occ. eigenvalues --   -5.93956  -5.93800  -5.93798  -5.93725  -5.93719
 Alpha  occ. eigenvalues --   -5.93695  -5.93653  -5.93648  -5.93617  -5.93613
 Alpha  occ. eigenvalues --   -5.93581  -5.93558  -5.93482  -5.93476  -5.93332
 Alpha  occ. eigenvalues --   -5.92987  -5.92983  -5.92831  -5.92822  -5.92782
 Alpha  occ. eigenvalues --   -5.92658  -5.92655  -5.92565  -5.92537  -5.92483
 Alpha  occ. eigenvalues --   -5.92470  -5.92444  -5.92152  -5.92110  -5.92059
 Alpha  occ. eigenvalues --   -2.58920  -2.58328  -2.57857  -2.57791  -2.57485
 Alpha  occ. eigenvalues --   -2.56804  -2.55678  -2.55460  -2.55185  -2.54650
 Alpha  occ. eigenvalues --   -1.61795  -1.61641  -1.61213  -1.60923  -1.60887
 Alpha  occ. eigenvalues --   -1.60641  -1.60301  -1.60247  -1.60227  -1.59963
 Alpha  occ. eigenvalues --   -1.59826  -1.59819  -1.59721  -1.59482  -1.59436
 Alpha  occ. eigenvalues --   -1.59426  -1.59216  -1.58843  -1.58598  -1.58283
 Alpha  occ. eigenvalues --   -1.58058  -1.57815  -1.57513  -1.57398  -1.57155
 Alpha  occ. eigenvalues --   -1.57058  -1.56832  -1.56693  -1.56512  -1.56179
 Alpha  occ. eigenvalues --   -0.78628  -0.76850  -0.76141  -0.75928  -0.75244
 Alpha  occ. eigenvalues --   -0.74820  -0.74574  -0.74263  -0.73863  -0.73172
 Alpha  occ. eigenvalues --   -0.72984  -0.72733  -0.72479  -0.72230  -0.72099
 Alpha  occ. eigenvalues --   -0.71762  -0.71477  -0.71070  -0.70956  -0.70410
 Alpha  occ. eigenvalues --   -0.69852  -0.69459  -0.45938  -0.45722  -0.45321
 Alpha  occ. eigenvalues --   -0.44439  -0.43549  -0.43326  -0.43027  -0.42760
 Alpha  occ. eigenvalues --   -0.42468  -0.42141  -0.41869  -0.41510  -0.41413
 Alpha  occ. eigenvalues --   -0.40862  -0.40453  -0.40254  -0.40010  -0.39960
 Alpha  occ. eigenvalues --   -0.39729  -0.39643  -0.39347  -0.39266  -0.39121
 Alpha  occ. eigenvalues --   -0.38848  -0.38706  -0.38571  -0.38324  -0.37916
 Alpha  occ. eigenvalues --   -0.37897  -0.37508  -0.37215  -0.36922  -0.36740
 Alpha  occ. eigenvalues --   -0.36565  -0.36538  -0.36476  -0.36293  -0.35927
 Alpha  occ. eigenvalues --   -0.35868  -0.35734  -0.35634  -0.35417  -0.35333
 Alpha  occ. eigenvalues --   -0.35025  -0.34677  -0.34358  -0.33966  -0.33570
 Alpha  occ. eigenvalues --   -0.33333  -0.33050  -0.32762  -0.32596  -0.32253
 Alpha  occ. eigenvalues --   -0.32003  -0.31631  -0.31352  -0.31285  -0.31016
 Alpha  occ. eigenvalues --   -0.30332  -0.30197  -0.29814  -0.29523  -0.29409
 Alpha  occ. eigenvalues --   -0.29214  -0.28724  -0.28243  -0.28061  -0.27154
 Alpha  occ. eigenvalues --   -0.26710  -0.26412  -0.26260  -0.25161  -0.24449
 Alpha  occ. eigenvalues --   -0.23708
 Alpha virt. eigenvalues --   -0.18098  -0.17763  -0.17027  -0.16489  -0.16265
 Alpha virt. eigenvalues --   -0.15978  -0.15961  -0.15671  -0.15117  -0.14883
 Alpha virt. eigenvalues --   -0.14620  -0.14471  -0.14342  -0.13858  -0.13752

 Mulliken charges:
               1
     1  Mo  -0.213829
     2  S    0.397507
     3  S    0.051890
     4  S    0.204219
     5  S    0.079346
     6  Mo  -0.228963
     7  S    0.111426
     8  S    0.312794
     9  Mo  -0.854968
    10  S    0.139993
    11  S    0.190595
    12  Mo  -0.230148
    13  Mo  -0.191317
    14  S   -0.020541
    15  S    0.076064
    16  S   -0.012040
    17  S    0.145200
    18  Mo   0.288109
    19  S   -0.194573
    20  S    0.011037
    21  Mo   0.294813
    22  S   -0.192217
    23  S   -0.026129
    24  Mo  -0.344056
    25  S   -0.056805
    26  S    0.206178
    27  Mo  -0.137282
    28  S    0.062895
    29  S    0.013707
    30  Mo   0.243404
    31  S   -0.177413
    32  S    0.051104
 Sum of Mulliken charges =  -0.00000

 Dipole moment (field-independent basis, Debye):
    X=              0.5122    Y=             -0.4220    Z=             -3.5695  Tot=              3.6307
 Quadrupole moment (field-independent basis, Debye-Ang):
   XX=           -530.9351   YY=           -524.7173   ZZ=           -593.4736
   XY=              2.4367   XZ=             -0.5652   YZ=            -11.0014

  Exact polarizability:    1157.913      24.672     679.736      37.390    -314.299    1002.701
 Approx polarizability:    3693.647      72.570    2279.408      31.056    -772.316    3067.638

                      1                      2                      3
                      A                      A                      A
 Frequencies --     35.3088                41.5167                46.1513
 Red. masses --     41.3842                38.7955                41.6983
 Frc consts  --      0.0304                 0.0394                 0.0523
 IR Inten    --      0.4182                 0.2406                 0.0967

                      4                      5                      6
                      A                      A                      A
 Frequencies --     53.8582                55.4472                58.1330
 Red. masses --     37.9811                41.0186                39.1517
 Frc consts  --      0.0649                 0.0743                 0.0780
 IR Inten    --      0.0141                 0.0193                 0.5944

                      7                      8                      9
                      A                      A                      A
 Frequencies --     65.2836                68.5089                75.0979
 Red. masses --     42.3666                43.5533                44.3240
 Frc consts  --      0.1064                 0.1204                 0.1473
 IR Inten    --      3.4810                 0.3297                 0.2347

                     10                     11                     12
                      A                      A                      A
 Frequencies --     80.9198                84.7275                86.6941
 Red. masses --     38.8720                42.2090                39.6579
 Frc consts  --      0.1500                 0.1785                 0.1756
 IR Inten    --      1.9075                 0.5092                 0.3162

                     13                     14                     15
                      A                      A                      A
 Frequencies --     90.2448                92.4831                96.5821
 Red. masses --     42.2539                41.7740                39.0031
 Frc consts  --      0.2028                 0.2105                 0.2144
 IR Inten    --      1.0693                 0.6485                 1.9509

                     16                     17                     18
                      A                      A                      A
 Frequencies --    106.1498               109.2709               111.6425
 Red. masses --     44.1827                45.0477                45.5783
 Frc consts  --      0.2933                 0.3169                 0.3347
 IR Inten    --      1.8282                 0.9575                 0.1985

                     19                     20                     21
                      A                      A                      A
 Frequencies --    114.3404               119.0099               124.1699
 Red. masses --     51.4927                47.1536                43.1999
 Frc consts  --      0.3966                 0.3935                 0.3924
 IR Inten    --      1.4201                 0.8252                 1.0397

                     22                     23                     24
                      A                      A                      A
 Frequencies --    128.7154               130.5987               138.3572
 Red. masses --     50.6404                47.1912                45.6149
 Frc consts  --      0.4943                 0.4742                 0.5145
 IR Inten    --      2.5515                 0.7448                 0.1125

                     25                     26                     27
                      A                      A                      A
 Frequencies --    142.4030               144.7062               145.7600
 Red. masses --     48.7228                41.7927                44.0357
 Frc consts  --      0.5821                 0.5156                 0.5512
 IR Inten    --      1.0830                 0.0986                 0.8120

                     28                     29                     30
                      A                      A                      A
 Frequencies --    149.6062               155.9913               159.3905
 Red. masses --     45.7586                46.1741                38.8044
 Frc consts  --      0.6034                 0.6620                 0.5808
 IR Inten    --      0.3934                 2.9694                 1.1224

                     31                     32                     33
                      A                      A                      A
 Frequencies --    160.3986               162.6268               165.0646
 Red. masses --     44.4648                45.8334                52.2793
 Frc consts  --      0.6740                 0.7142                 0.8392
 IR Inten    --      1.6775                 2.0930                 1.5911

                     34                     35                     36
                      A                      A                      A
 Frequencies --    167.7208               171.4229               174.3659
 Red. masses --     41.6244                43.0252                48.2904
 Frc consts  --      0.6899                 0.7449                 0.8650
 IR Inten    --      0.5170                 2.2378                 7.4241

                     37                     38                     39
                      A                      A                      A
 Frequencies --    177.5813               185.3750               190.8798
 Red. masses --     43.8565                49.8440                43.7680
 Frc consts  --      0.8149                 1.0092                 0.9396
 IR Inten    --      0.8106                 0.9967                 2.8585

                     40                     41                     42
                      A                      A                      A
 Frequencies --    195.8201               202.1508               208.2517
 Red. masses --     39.5772                46.8115                43.4011
 Frc consts  --      0.8941                 1.1271                 1.1090
 IR Inten    --      3.9102                 2.5947                 2.4273

                     43                     44                     45
                      A                      A                      A
 Frequencies --    212.2641               218.4440               219.7798
 Red. masses --     40.2325                38.7733                36.9987
 Frc consts  --      1.0680                 1.0901                 1.0530
 IR Inten    --      1.2460                 1.8893                 2.1317

                     46                     47                     48
                      A                      A                      A
 Frequencies --    222.9560               232.8405               239.4245
 Red. masses --     38.7054                36.4272                38.1100
 Frc consts  --      1.1336                 1.1636                 1.2871
 IR Inten    --      0.1516                 6.6308                 0.6454

                     49                     50                     51
                      A                      A                      A
 Frequencies --    244.7322               246.5061               253.6102
 Red. masses --     37.0628                37.6840                35.2594
 Frc consts  --      1.3079                 1.3492                 1.3362
 IR Inten    --      4.7817                 0.6621                 1.1124

                     52                     53                     54
                      A                      A                      A
 Frequencies --    258.6976               260.6100               268.5532
 Red. masses --     34.7915                36.4496                34.0872
 Frc consts  --      1.3719                 1.4586                 1.4484
 IR Inten    --      0.7224                 0.7302                 4.3444

                     55                     56                     57
                      A                      A                      A
 Frequencies --    274.0507               284.8406               291.6090
 Red. masses --     36.1799                36.0436                36.7475
 Frc consts  --      1.6010                 1.7230                 1.8411
 IR Inten    --      0.8533                 4.9836                 0.8753

                     58                     59                     60
                      A                      A                      A
 Frequencies --    295.7874               300.9313               304.9930
 Red. masses --     36.0097                35.9885                36.2770
 Frc consts  --      1.8562                 1.9202                 1.9882
 IR Inten    --      0.1339                 9.5457                 8.9854

                     61                     62                     63
                      A                      A                      A
 Frequencies --    310.2185               312.8448               328.5376
 Red. masses --     38.2902                36.4589                36.4835
 Frc consts  --      2.1711                 2.1024                 2.3202
 IR Inten    --      0.4715                 0.8406                 0.8323

                     64                     65                     66
                      A                      A                      A
 Frequencies --    335.0569               343.1155               346.3223
 Red. masses --     38.7285                35.3060                36.5721
 Frc consts  --      2.5616                 2.4489                 2.5844
 IR Inten    --      2.9516                 4.2098                 1.1913

                     67                     68                     69
                      A                      A                      A
 Frequencies --    367.7553               375.1854               396.2085
 Red. masses --     40.7733                38.3399                35.0877
 Frc consts  --      3.2490                 3.1798                 3.2453
 IR Inten    --      1.5608                 2.0981                 1.2086

                     70                     71                     72
                      A                      A                      A
 Frequencies --    405.4673               406.3034               409.2709
 Red. masses --     36.1270                37.3806                37.3721
 Frc consts  --      3.4994                 3.6358                 3.6882
 IR Inten    --      2.1601                 0.1399                 0.8207

                     73                     74                     75
                      A                      A                      A
 Frequencies --    412.7865               416.3795               428.7505
 Red. masses --     36.7438                37.4802                33.0939
 Frc consts  --      3.6888                 3.8285                 3.5843
 IR Inten    --      0.3480                 4.3804                 0.9928

                     76                     77                     78
                      A                      A                      A
 Frequencies --    431.3007               435.2509               436.7656
 Red. masses --     34.6247                33.0405                38.0765
 Frc consts  --      3.7949                 3.6879                 4.2796
 IR Inten    --      2.3558                 0.7458                 0.6572

                     79                     80                     81
                      A                      A                      A
 Frequencies --    447.0165               450.1199               458.2620
 Red. masses --     40.0186                39.4446                40.1496
 Frc consts  --      4.7115                 4.7086                 4.9677
 IR Inten    --     10.5213                 3.2544                18.9062

                     82                     83                     84
                      A                      A                      A
 Frequencies --    462.4290               466.9468               469.7997
 Red. masses --     40.3347                39.3621                40.2223
 Frc consts  --      5.0818                 5.0567                 5.2305
 IR Inten    --     14.9447                 0.1233                14.0065

                     85                     86                     87
                      A                      A                      A
 Frequencies --    474.6263               486.0289               563.4723
 Red. masses --     39.6262                38.8138                39.9818
 Frc consts  --      5.2594                 5.4021                 7.4792
 IR Inten    --     18.5830                 7.2073               266.1052

                     88                     89                     90
                      A                      A                      A
 Frequencies --    564.8128               568.1715               573.7623
 Red. masses --     39.9572                39.5032                38.8177
 Frc consts  --      7.5103                 7.5135                 7.5291
 IR Inten    --    169.2601                67.2482               121.1882

 - Thermochemistry -
 -------------------
 Temperature   298.150 Kelvin.  Pressure   1.00000 Atm.
 Atom     1 has atomic number 42 and mass  97.90550

 Molecular mass:  1682.44058 amu.
 Principal axes and moments of inertia in atomic units:
                           1         2         3
     Eigenvalues --  ******************************
           X            0.27764   0.95933  -0.05108
           Y           -0.49618   0.18872   0.84746
           Z            0.82263  -0.20995   0.52840
 This molecule is an asymmetric top.
 Rotational symmetry number  1.
 Warning -- assumption of classical behavior for rotation
           may cause significant error
 Rotational temperatures (Kelvin)      0.00165     0.00149     0.00086
 Rotational constants (GHZ):           0.03433     0.03103     0.01783
 Zero-point vibrational energy     135694.4 (Joules/Mol)
                                   32.43173 (Kcal/Mol)
 Warning -- explicit consideration of  90 degrees of freedom as
           vibrations may cause significant error
 Vibrational temperatures:     50.80    59.73    66.40    77.49    79.78
          (Kelvin)             83.64    93.93    98.57   108.05   116.43
                              121.90   124.73   129.84   133.06   138.96
                              152.73   157.22   160.63   164.51   171.23
                              178.65   185.19   187.90   199.07   204.89
                              208.20   209.72   215.25   224.44   229.33
                              230.78   233.98   237.49   241.31   246.64
                              250.87   255.50   266.71   274.63   281.74
                              290.85   299.63   305.40   314.29   316.21
                              320.78   335.01   344.48   352.12   354.67
                              364.89   372.21   374.96   386.39   394.30
                              409.82   419.56   425.57   432.97   438.82
                              446.34   450.11   472.69   482.07   493.67
                              498.28   529.12   539.81   570.06   583.38
                              584.58   588.85   593.91   599.08   616.88
                              620.55   626.23   628.41   643.16   647.62
                              659.34   665.33   671.83   675.94   682.88
                              699.29   810.71   812.64   817.47   825.52

 Zero-point correction=                           0.051683 (Hartree/Particle)
 Thermal correction to Energy=                    0.100962
 Thermal correction to Enthalpy=                  0.101906
 Thermal correction to Gibbs Free Energy=        -0.032346
 Sum of electronic and zero-point Energies=          -9436.738846
 Sum of electronic and thermal Energies=             -9436.689568
 Sum of electronic and thermal Enthalpies=           -9436.688624
 Sum of electronic and thermal Free Energies=        -9436.822876

                     E (Thermal)             CV                S
                      KCal/Mol        Cal/Mol-Kelvin    Cal/Mol-Kelvin
 Total                   63.354            160.260            282.557
 Electronic               0.000              0.000              0.000
 Translational            0.889              2.981             48.132
 Rotational               0.889              2.981             40.955
 Vibrational             61.577            154.299            193.469
 Vibration     1          0.594              1.982              5.506
 Vibration     2          0.594              1.981              5.185
 Vibration     3          0.595              1.979              4.976
 Vibration     4          0.596              1.976              4.670
 Vibration     5          0.596              1.975              4.613
 Vibration     6          0.596              1.974              4.520
 Vibration     7          0.597              1.971              4.291
 Vibration     8          0.598              1.969              4.196
 Vibration     9          0.599              1.966              4.015
 Vibration    10          0.600              1.962              3.868
 Vibration    11          0.601              1.960              3.778
 Vibration    12          0.601              1.958              3.733
 Vibration    13          0.602              1.956              3.655
 Vibration    14          0.602              1.955              3.607
 Vibration    15          0.603              1.952              3.522
 Vibration    16          0.605              1.944              3.338
 Vibration    17          0.606              1.942              3.282
 Vibration    18          0.607              1.940              3.240
 Vibration    19          0.607              1.938              3.194
 Vibration    20          0.609              1.933              3.116
 Vibration    21          0.610              1.929              3.034
 Vibration    22          0.611              1.925              2.965
 Vibration    23          0.612              1.923              2.937
 Vibration    24          0.614              1.915              2.826
 Vibration    25          0.616              1.911              2.771
 Vibration    26          0.616              1.908              2.741
 Vibration    27          0.617              1.907              2.727
 Vibration    28          0.618              1.903              2.677
 Vibration    29          0.620              1.896              2.598
 Vibration    30          0.621              1.892              2.557
 Vibration    31          0.622              1.891              2.545
 Vibration    32          0.623              1.888              2.519
 Vibration    33          0.623              1.885              2.491
 Vibration    34          0.624              1.882              2.461
 Vibration    35          0.626              1.878              2.420
 Vibration    36          0.627              1.874              2.388
 Vibration    37          0.628              1.870              2.354
 Vibration    38          0.631              1.860              2.274
 Vibration    39          0.634              1.852              2.219
 Vibration    40          0.636              1.846              2.172
 Vibration    41          0.639              1.837              2.113
 Vibration    42          0.642              1.828              2.059
 Vibration    43          0.643              1.822              2.024
 Vibration    44          0.646              1.813              1.972
 Vibration    45          0.647              1.811              1.961
 Vibration    46          0.649              1.806              1.935
 Vibration    47          0.654              1.791              1.857
 Vibration    48          0.657              1.780              1.807
 Vibration    49          0.660              1.771              1.768
 Vibration    50          0.661              1.769              1.755
 Vibration    51          0.665              1.757              1.705
 Vibration    52          0.668              1.748              1.671
 Vibration    53          0.669              1.745              1.658
 Vibration    54          0.673              1.731              1.606
 Vibration    55          0.676              1.721              1.571
 Vibration    56          0.683              1.702              1.504
 Vibration    57          0.687              1.689              1.465
 Vibration    58          0.690              1.682              1.441
 Vibration    59          0.693              1.672              1.412
 Vibration    60          0.696              1.664              1.389
 Vibration    61          0.699              1.654              1.361
 Vibration    62          0.701              1.649              1.347
 Vibration    63          0.712              1.618              1.267
 Vibration    64          0.716              1.605              1.236
 Vibration    65          0.722              1.589              1.198
 Vibration    66          0.724              1.583              1.183
 Vibration    67          0.740              1.539              1.089
 Vibration    68          0.746              1.523              1.059
 Vibration    69          0.763              1.478              0.977
 Vibration    70          0.770              1.458              0.943
 Vibration    71          0.771              1.457              0.940
 Vibration    72          0.774              1.450              0.929
 Vibration    73          0.777              1.442              0.917
 Vibration    74          0.780              1.435              0.904
 Vibration    75          0.790              1.408              0.863
 Vibration    76          0.792              1.402              0.854
 Vibration    77          0.796              1.393              0.842
 Vibration    78          0.797              1.390              0.837
 Vibration    79          0.806              1.367              0.805
 Vibration    80          0.809              1.361              0.795
 Vibration    81          0.816              1.343              0.771
 Vibration    82          0.820              1.333              0.759
 Vibration    83          0.824              1.323              0.746
 Vibration    84          0.827              1.317              0.738
 Vibration    85          0.831              1.306              0.725
 Vibration    86          0.842              1.281              0.694
 Vibration    87          0.919              1.110              0.517
 Vibration    88          0.921              1.107              0.514
 Vibration    89          0.924              1.100              0.508
 Vibration    90          0.930              1.088              0.497

                           ! Non-Optimized Parameters !
 Normal termination of Gaussian 16 at Wed Dec 14 09:41:44 2022.
