 Gaussian 16, Revision C.01,
 Gaussian 16:  ES64L-G16RevC.01  3-Jul-2019

 ---------------------------------------
 # opt freq b3lyp/gen nosymm pseudo=read
 ---------------------------------------

 -------------------
 Title Card Required
 -------------------
 Symbolic Z-matrix:
 Charge =  0 Multiplicity = 1

 SCF Done:  E(RB3LYP) =  -4254.89428231     A.U. after   27 cycles
 SCF Done:  E(RB3LYP) =  -4254.89430013     A.U. after   16 cycles
 SCF Done:  E(RB3LYP) =  -4254.89431801     A.U. after   15 cycles
 SCF Done:  E(RB3LYP) =  -4254.89432204     A.U. after   14 cycles
 SCF Done:  E(RB3LYP) =  -4254.89432372     A.U. after   13 cycles
 SCF Done:  E(RB3LYP) =  -4254.89432473     A.U. after   12 cycles
 SCF Done:  E(RB3LYP) =  -4254.89432537     A.U. after   12 cycles
 Optimization completed.
    -- Stationary point found.
 Normal termination of Gaussian 16 at Tue Nov  1 11:38:47 2022.

 ------------------------------------------------------------------
 #N Geom=AllCheck Guess=TCheck SCRF=Check GenChk RB3LYP/ChkBas Freq
 ------------------------------------------------------------------

 Structure from the checkpoint file:  "/localscratch/chesha/scratch/Gau-195167.chk"
 -------------------
 Title Card Required
 -------------------
 Charge =  0 Multiplicity = 1

                          Input orientation:
 ---------------------------------------------------------------------
 Center     Atomic      Atomic             Coordinates (Angstroms)
 Number     Number       Type             X           Y           Z
 ---------------------------------------------------------------------
      1         42           0       -0.077811    1.063025   11.481100
      2         16           0        1.360553    2.903654   11.930957
      3         16           0       -1.656738    1.537142   13.185087
      4         16           0       -1.214159    1.523187    9.473645
      5         16           0        1.139769   -0.728983   10.836155
      6         42           0       -2.343477    2.621913   11.274850
      7         16           0       -4.435120    2.139940   10.373451
      8          1           0       -4.268295    1.219057    9.401667
      9         16           0       -1.532820    4.768172   11.317156
     10         42           0       -0.030673    3.477551   10.106526
     11         16           0        0.566529    5.242776    8.644227
     12          1           0       -0.404988    6.142256    8.914237
     13         16           0        1.953172    2.383901    8.607365
     14         42           0        2.484609    1.231924   10.407882
     15         16           0        4.454894    1.995753   11.546617
     16          1           0        4.024353    3.100136   12.193373
     17         16           0        4.133536   -0.259199    9.569569
     18          1           0        3.453027   -1.413820    9.407534
 ---------------------------------------------------------------------

 SCF Done:  E(RB3LYP) =  -4254.89432537     A.U. after    3 cycles

 Alpha  occ. eigenvalues --  -88.92664 -88.91897 -88.91124 -88.89637 -88.89428
 Alpha  occ. eigenvalues --  -88.89113 -88.88823 -88.88415 -88.87421 -88.86770
 Alpha  occ. eigenvalues --   -8.00309  -7.99520  -7.98978  -7.97420  -7.97291
 Alpha  occ. eigenvalues --   -7.96774  -7.96602  -7.96215  -7.95125  -7.94436
 Alpha  occ. eigenvalues --   -5.96294  -5.96252  -5.96239  -5.95542  -5.95487
 Alpha  occ. eigenvalues --   -5.95391  -5.94977  -5.94924  -5.94853  -5.93546
 Alpha  occ. eigenvalues --   -5.93428  -5.93373  -5.93299  -5.93173  -5.93017
 Alpha  occ. eigenvalues --   -5.92989  -5.92615  -5.92612  -5.92569  -5.92556
 Alpha  occ. eigenvalues --   -5.92470  -5.92273  -5.92204  -5.92001  -5.91379
 Alpha  occ. eigenvalues --   -5.91010  -5.90843  -5.90725  -5.90349  -5.90097
 Alpha  occ. eigenvalues --   -2.57210  -2.56177  -2.55774  -2.55569  -1.60523
 Alpha  occ. eigenvalues --   -1.59971  -1.59473  -1.58989  -1.58921  -1.58612
 Alpha  occ. eigenvalues --   -1.58184  -1.57884  -1.57563  -1.57187  -1.57020
 Alpha  occ. eigenvalues --   -1.56576  -0.76599  -0.75385  -0.74760  -0.74302
 Alpha  occ. eigenvalues --   -0.73423  -0.72981  -0.72397  -0.71410  -0.70915
 Alpha  occ. eigenvalues --   -0.70423  -0.46171  -0.45281  -0.44716  -0.42561
 Alpha  occ. eigenvalues --   -0.42258  -0.41750  -0.41605  -0.40402  -0.40059
 Alpha  occ. eigenvalues --   -0.39776  -0.39648  -0.37967  -0.37112  -0.36685
 Alpha  occ. eigenvalues --   -0.35940  -0.35814  -0.35095  -0.34805  -0.34376
 Alpha  occ. eigenvalues --   -0.33852  -0.33215  -0.32754  -0.32183  -0.31735
 Alpha  occ. eigenvalues --   -0.30847  -0.30206  -0.29597  -0.28949  -0.28404
 Alpha  occ. eigenvalues --   -0.27589  -0.27395  -0.26837  -0.25700  -0.24929
 Alpha virt. eigenvalues --   -0.17430  -0.15771  -0.15624  -0.14428  -0.13975
 Alpha virt. eigenvalues --   -0.13143  -0.12610  -0.12335  -0.10771  -0.10452
 Alpha virt. eigenvalues --   -0.09838  -0.09573  -0.08489  -0.08040  -0.06804

 Mulliken charges:
               1
     1  Mo   0.103149
     2  S    0.124863
     3  S   -0.069406
     4  S    0.174442
     5  S   -0.075642
     6  Mo   0.034649
     7  S   -0.128892
     8  H    0.102679
     9  S   -0.008881
    10  Mo  -0.250044
    11  S   -0.031368
    12  H    0.085725
    13  S   -0.034527
    14  Mo  -0.184806
    15  S   -0.005272
    16  H    0.065408
    17  S    0.017529
    18  H    0.080392
 Sum of Mulliken charges =   0.00000

 Dipole moment (field-independent basis, Debye):
    X=             -4.4782    Y=              0.6157    Z=              0.2783  Tot=              4.5289
 Quadrupole moment (field-independent basis, Debye-Ang):
   XX=           -240.4364   YY=           -215.4159   ZZ=           -221.4419
   XY=             -7.4882   XZ=            -41.6928   YZ=             11.4213

  Exact polarizability:     505.997     -66.856     360.801     -23.279     -18.384     277.692
 Approx polarizability:    1266.467    -199.850    1087.015     -79.547     -84.225     828.769

                      1                      2                      3
                      A                      A                      A
 Frequencies --     28.5332                46.8248                58.2903
 Red. masses --     14.3530                16.0034                17.9880
 Frc consts  --      0.0069                 0.0207                 0.0360
 IR Inten    --      0.1535                 0.7354                 0.6910

                      4                      5                      6
                      A                      A                      A
 Frequencies --     70.2406                91.9978               103.7707
 Red. masses --     18.1968                19.3836                25.3693
 Frc consts  --      0.0529                 0.0967                 0.1610
 IR Inten    --      0.9461                 1.5749                 0.1674

                      7                      8                      9
                      A                      A                      A
 Frequencies --    110.8981               116.7389               123.4990
 Red. masses --     14.9224                23.2493                25.9961
 Frc consts  --      0.1081                 0.1867                 0.2336
 IR Inten    --      0.6885                 1.2175                 0.2236

                     10                     11                     12
                      A                      A                      A
 Frequencies --    134.1269               142.2004               153.6457
 Red. masses --     19.0328                20.3659                24.5173
 Frc consts  --      0.2017                 0.2426                 0.3410
 IR Inten    --      0.8333                 1.6391                 0.2709

                     13                     14                     15
                      A                      A                      A
 Frequencies --    160.1950               169.4416               184.5976
 Red. masses --     27.5271                21.4118                23.2057
 Frc consts  --      0.4162                 0.3622                 0.4659
 IR Inten    --      1.4783                 0.2232                 1.1735

                     16                     17                     18
                      A                      A                      A
 Frequencies --    191.9815               202.0676               208.4000
 Red. masses --     20.4255                32.3959                26.1112
 Frc consts  --      0.4435                 0.7794                 0.6681
 IR Inten    --      3.4095                 2.0245                 9.5859

                     19                     20                     21
                      A                      A                      A
 Frequencies --    225.5669               258.4266               264.4459
 Red. masses --     38.3822                 1.5080                 9.9344
 Frc consts  --      1.1506                 0.0593                 0.4093
 IR Inten    --      0.3555                 5.8245                 3.6723

                     22                     23                     24
                      A                      A                      A
 Frequencies --    273.7909               286.4555               300.0333
 Red. masses --     25.5119                29.6012                 9.0228
 Frc consts  --      1.1268                 1.4311                 0.4786
 IR Inten    --      2.8009                12.8251                14.6610

                     25                     26                     27
                      A                      A                      A
 Frequencies --    300.9169               323.8734               336.2440
 Red. masses --     10.5351                12.3749                17.8172
 Frc consts  --      0.5621                 0.7648                 1.1869
 IR Inten    --      0.1813                12.3126                14.9604

                     28                     29                     30
                      A                      A                      A
 Frequencies --    345.7987               351.8991               365.6084
 Red. masses --      7.5899                 2.2653                 4.8376
 Frc consts  --      0.5347                 0.1653                 0.3810
 IR Inten    --      9.2300                13.5857                64.4486

                     31                     32                     33
                      A                      A                      A
 Frequencies --    365.7060               371.9543               381.4719
 Red. masses --      3.8209                 9.7370                 1.2848
 Frc consts  --      0.3011                 0.7937                 0.1102
 IR Inten    --     15.9218                13.2790                14.4225

                     34                     35                     36
                      A                      A                      A
 Frequencies --    399.3893               420.0231               435.1257
 Red. masses --      1.1268                28.4034                28.8313
 Frc consts  --      0.1059                 2.9523                 3.2162
 IR Inten    --     28.5788                13.4969                 5.1867

                     37                     38                     39
                      A                      A                      A
 Frequencies --    444.3417               455.4661               468.2597
 Red. masses --     31.3212                19.0750                21.9353
 Frc consts  --      3.6435                 2.3315                 2.8338
 IR Inten    --     14.3843                10.0453                26.6936

                     40                     41                     42
                      A                      A                      A
 Frequencies --    471.1185               625.2683               680.5033
 Red. masses --     33.1143                 1.0744                 1.0496
 Frc consts  --      4.3304                 0.2475                 0.2864
 IR Inten    --     33.4170                17.0345                 9.5242

                     43                     44                     45
                      A                      A                      A
 Frequencies --    737.9139               762.9672              2661.6985
 Red. masses --      1.0428                 1.0413                 1.0383
 Frc consts  --      0.3345                 0.3571                 4.3338
 IR Inten    --     10.8354                 9.4549                 4.8469

                     46                     47                     48
                      A                      A                      A
 Frequencies --   2663.7008              2669.0852              2675.9449
 Red. masses --      1.0381                 1.0386                 1.0386
 Frc consts  --      4.3395                 4.3595                 4.3818
 IR Inten    --      4.4452                 1.9950                 0.1273

 - Thermochemistry -
 -------------------
 Temperature   298.150 Kelvin.  Pressure   1.00000 Atm.
 Atom     1 has atomic number 42 and mass  97.90550

 Molecular mass:   715.37402 amu.
 Principal axes and moments of inertia in atomic units:
                           1         2         3
     Eigenvalues --  6971.02030********************
           X            0.94670   0.22074   0.23460
           Y           -0.30228   0.86043   0.41022
           Z           -0.11131  -0.45927   0.88129
 This molecule is an asymmetric top.
 Rotational symmetry number  1.
 Warning -- assumption of classical behavior for rotation
           may cause significant error
 Rotational temperatures (Kelvin)      0.01242     0.00566     0.00480
 Rotational constants (GHZ):           0.25889     0.11797     0.10006
 Zero-point vibrational energy     141281.7 (Joules/Mol)
                                   33.76713 (Kcal/Mol)
 Warning -- explicit consideration of  40 degrees of freedom as
           vibrations may cause significant error
 Vibrational temperatures:     41.05    67.37    83.87   101.06   132.36
          (Kelvin)            149.30   159.56   167.96   177.69   192.98
                              204.59   221.06   230.48   243.79   265.59
                              276.22   290.73   299.84   324.54   371.82
                              380.48   393.92   412.15   431.68   432.95
                              465.98   483.78   497.53   506.30   526.03
                              526.17   535.16   548.85   574.63   604.32
                              626.05   639.31   655.31   673.72   677.83
                              899.62   979.09  1061.69  1097.74  3829.59
                             3832.47  3840.22  3850.09

 Zero-point correction=                           0.053811 (Hartree/Particle)
 Thermal correction to Energy=                    0.077423
 Thermal correction to Enthalpy=                  0.078368
 Thermal correction to Gibbs Free Energy=        -0.000839
 Sum of electronic and zero-point Energies=          -4254.840514
 Sum of electronic and thermal Energies=             -4254.816902
 Sum of electronic and thermal Enthalpies=           -4254.815958
 Sum of electronic and thermal Free Energies=        -4254.895165

                     E (Thermal)             CV                S
                      KCal/Mol        Cal/Mol-Kelvin    Cal/Mol-Kelvin
 Total                   48.584             77.986            166.705
 Electronic               0.000              0.000              0.000
 Translational            0.889              2.981             45.583
 Rotational               0.889              2.981             35.907
 Vibrational             46.806             72.024             85.214
 Vibration     1          0.593              1.984              5.929
 Vibration     2          0.595              1.979              4.947
 Vibration     3          0.596              1.974              4.514
 Vibration     4          0.598              1.968              4.147
 Vibration     5          0.602              1.955              3.617
 Vibration     6          0.605              1.946              3.382
 Vibration     7          0.607              1.940              3.253
 Vibration     8          0.608              1.935              3.154
 Vibration     9          0.610              1.929              3.045
 Vibration    10          0.613              1.919              2.886
 Vibration    11          0.616              1.911              2.774
 Vibration    12          0.619              1.899              2.627
 Vibration    13          0.622              1.891              2.547
 Vibration    14          0.625              1.880              2.442
 Vibration    15          0.631              1.861              2.281
 Vibration    16          0.634              1.851              2.209
 Vibration    17          0.639              1.837              2.114
 Vibration    18          0.642              1.828              2.058
 Vibration    19          0.650              1.802              1.914
 Vibration    20          0.667              1.749              1.672
 Vibration    21          0.671              1.738              1.632
 Vibration    22          0.676              1.722              1.572
 Vibration    23          0.684              1.699              1.495
 Vibration    24          0.693              1.674              1.417
 Vibration    25          0.693              1.672              1.412
 Vibration    26          0.708              1.628              1.290
 Vibration    27          0.717              1.603              1.230
 Vibration    28          0.724              1.584              1.185
 Vibration    29          0.728              1.571              1.158
 Vibration    30          0.739              1.543              1.098
 Vibration    31          0.739              1.543              1.098
 Vibration    32          0.744              1.530              1.072
 Vibration    33          0.751              1.510              1.033
 Vibration    34          0.765              1.471              0.965
 Vibration    35          0.783              1.427              0.892
 Vibration    36          0.796              1.394              0.842
 Vibration    37          0.804              1.373              0.813
 Vibration    38          0.814              1.349              0.779
 Vibration    39          0.825              1.320              0.742
 Vibration    40          0.828              1.314              0.734

                           ! Non-Optimized Parameters !
 Normal termination of Gaussian 16 at Tue Nov  1 11:40:52 2022.
