 Gaussian 16, Revision C.01,
 Gaussian 16:  ES64L-G16RevC.01  3-Jul-2019

 ---------------------------------------
 # opt freq b3lyp/gen nosymm pseudo=read
 ---------------------------------------

 -------------------
 Title Card Required
 -------------------
 Symbolic Z-matrix:
 Charge =  0 Multiplicity = 1

 SCF Done:  E(RB3LYP) =  -5116.50069291     A.U. after   30 cycles
 SCF Done:  E(RB3LYP) =  -5116.51089328     A.U. after   20 cycles
 SCF Done:  E(RB3LYP) =  -5116.51157325     A.U. after   19 cycles
 SCF Done:  E(RB3LYP) =  -5116.51171546     A.U. after   19 cycles
 SCF Done:  E(RB3LYP) =  -5116.51193826     A.U. after   19 cycles
 SCF Done:  E(RB3LYP) =  -5116.51214717     A.U. after   18 cycles
 SCF Done:  E(RB3LYP) =  -5116.51227635     A.U. after   18 cycles
 SCF Done:  E(RB3LYP) =  -5116.51231520     A.U. after   18 cycles
 SCF Done:  E(RB3LYP) =  -5116.51235269     A.U. after   17 cycles
 SCF Done:  E(RB3LYP) =  -5116.51237216     A.U. after   17 cycles
 SCF Done:  E(RB3LYP) =  -5116.51237569     A.U. after   14 cycles
 SCF Done:  E(RB3LYP) =  -5116.51237641     A.U. after   13 cycles
 SCF Done:  E(RB3LYP) =  -5116.51237728     A.U. after   14 cycles
 SCF Done:  E(RB3LYP) =  -5116.51237771     A.U. after   14 cycles
 SCF Done:  E(RB3LYP) =  -5116.51237807     A.U. after   14 cycles
 SCF Done:  E(RB3LYP) =  -5116.51237839     A.U. after   14 cycles
 SCF Done:  E(RB3LYP) =  -5116.51237869     A.U. after   14 cycles
 SCF Done:  E(RB3LYP) =  -5116.51237879     A.U. after   13 cycles
 Optimization completed.
    -- Stationary point found.
 Normal termination of Gaussian 16 at Sun Dec 11 10:35:22 2022.

 ------------------------------------------------------------------
 #N Geom=AllCheck Guess=TCheck SCRF=Check GenChk RB3LYP/ChkBas Freq
 ------------------------------------------------------------------

 Structure from the checkpoint file:  "/home/chesagar/scratch/Gau-170069.chk"
 -------------------
 Title Card Required
 -------------------
 Charge =  0 Multiplicity = 1

                          Input orientation:
 ---------------------------------------------------------------------
 Center     Atomic      Atomic             Coordinates (Angstroms)
 Number     Number       Type             X           Y           Z
 ---------------------------------------------------------------------
      1         42           0        0.018872    1.819524   12.122101
      2         16           0        0.383170    3.938509   12.802535
      3         16           0       -2.312963    1.497501   12.339869
      4         16           0        0.090440    1.611675    9.722749
      5         16           0        1.942271    0.680965   12.579871
      6         42           0       -2.087694    2.398930   10.220973
      7         16           0       -3.237547    2.067237    8.294174
      8         16           0       -2.098836    4.611553   10.543746
      9         42           0        0.239257    3.861762   10.402022
     10         16           0        0.078139    4.589570    7.972499
     11         16           0        2.545872    4.112493    9.988004
     12         42           0        3.193246    2.163574   11.159512
     13         42           0       -2.052391    3.982821    7.324433
     14         16           0        4.746727    2.822099   12.435529
     15         16           0        4.056218    0.916955    9.682546
     16         16           0       -3.360980    5.658653    7.377361
     17         16           0       -1.814221    3.415978    5.298801
 ---------------------------------------------------------------------

 SCF Done:  E(RB3LYP) =  -5116.51237879     A.U. after    1 cycles

 Alpha  occ. eigenvalues --  -88.93771 -88.91278 -88.90905 -88.90626 -88.90058
 Alpha  occ. eigenvalues --  -88.90004 -88.89626 -88.89277 -88.89050 -88.88399
 Alpha  occ. eigenvalues --  -88.88051 -88.87714  -8.01345  -7.98943  -7.98678
 Alpha  occ. eigenvalues --   -7.98429  -7.97958  -7.97861  -7.97545  -7.97198
 Alpha  occ. eigenvalues --   -7.96852  -7.96354  -7.95963  -7.95443  -5.97372
 Alpha  occ. eigenvalues --   -5.97297  -5.97233  -5.94931  -5.94890  -5.94860
 Alpha  occ. eigenvalues --   -5.94688  -5.94621  -5.94559  -5.94455  -5.94377
 Alpha  occ. eigenvalues --   -5.94287  -5.94000  -5.93944  -5.93880  -5.93834
 Alpha  occ. eigenvalues --   -5.93749  -5.93695  -5.93598  -5.93531  -5.93302
 Alpha  occ. eigenvalues --   -5.93223  -5.93198  -5.92969  -5.92965  -5.92814
 Alpha  occ. eigenvalues --   -5.92610  -5.92377  -5.92355  -5.92119  -5.92036
 Alpha  occ. eigenvalues --   -5.91912  -5.91743  -5.91582  -5.91392  -5.91206
 Alpha  occ. eigenvalues --   -2.58361  -2.57678  -2.57441  -2.57244  -2.57171
 Alpha  occ. eigenvalues --   -1.61293  -1.60873  -1.60766  -1.60502  -1.60428
 Alpha  occ. eigenvalues --   -1.60195  -1.59930  -1.59804  -1.59695  -1.59594
 Alpha  occ. eigenvalues --   -1.59349  -1.59288  -1.59228  -1.58382  -1.57979
 Alpha  occ. eigenvalues --   -0.77207  -0.74770  -0.73659  -0.73481  -0.72853
 Alpha  occ. eigenvalues --   -0.72318  -0.71739  -0.70996  -0.70489  -0.70274
 Alpha  occ. eigenvalues --   -0.69547  -0.69146  -0.44062  -0.43431  -0.43013
 Alpha  occ. eigenvalues --   -0.42248  -0.41402  -0.40989  -0.40777  -0.39856
 Alpha  occ. eigenvalues --   -0.39160  -0.38652  -0.38394  -0.37994  -0.37767
 Alpha  occ. eigenvalues --   -0.37565  -0.37247  -0.37088  -0.36874  -0.36351
 Alpha  occ. eigenvalues --   -0.36227  -0.36066  -0.35845  -0.34897  -0.34699
 Alpha  occ. eigenvalues --   -0.34043  -0.33861  -0.33556  -0.32335  -0.31814
 Alpha  occ. eigenvalues --   -0.31593  -0.30767  -0.30648  -0.29396  -0.29168
 Alpha  occ. eigenvalues --   -0.28646  -0.27716  -0.27065  -0.26737  -0.25751
 Alpha  occ. eigenvalues --   -0.25091
 Alpha virt. eigenvalues --   -0.18083  -0.17249  -0.17038  -0.16289  -0.15650
 Alpha virt. eigenvalues --   -0.15283  -0.14552  -0.14457  -0.13798  -0.13382
 Alpha virt. eigenvalues --   -0.12860  -0.12160  -0.11340  -0.11266  -0.10594

 Mulliken charges:
               1
     1  Mo  -0.017229
     2  S    0.119960
     3  S   -0.043415
     4  S    0.315644
     5  S   -0.079501
     6  Mo   0.049297
     7  S   -0.107834
     8  S    0.144103
     9  Mo  -0.439770
    10  S    0.003734
    11  S    0.018427
    12  Mo   0.259879
    13  Mo   0.249511
    14  S   -0.105430
    15  S   -0.106716
    16  S   -0.141379
    17  S   -0.119281
 Sum of Mulliken charges =  -0.00000

 Dipole moment (field-independent basis, Debye):
    X=             -0.6469    Y=             -1.6924    Z=              2.6763  Tot=              3.2319
 Quadrupole moment (field-independent basis, Debye-Ang):
   XX=           -277.5170   YY=           -280.8820   ZZ=           -221.6638
   XY=              1.0239   XZ=             -9.5715   YZ=             -6.8215

  Exact polarizability:     585.355     -64.329     348.861     126.656     -55.607     498.812
 Approx polarizability:    1758.867     -94.521    1245.316     260.662     -48.736    1510.629

                      1                      2                      3
                      A                      A                      A
 Frequencies --     17.4182                30.9722                42.0821
 Red. masses --     35.4563                37.8243                40.1570
 Frc consts  --      0.0063                 0.0214                 0.0419
 IR Inten    --      0.0710                 0.9840                 1.2284

                      4                      5                      6
                      A                      A                      A
 Frequencies --     61.7098                64.7289                72.0958
 Red. masses --     40.9484                39.4208                48.1487
 Frc consts  --      0.0919                 0.0973                 0.1475
 IR Inten    --      1.1164                 0.2949                 1.1680

                      7                      8                      9
                      A                      A                      A
 Frequencies --     76.9908                94.0445               100.9163
 Red. masses --     39.9707                45.7397                41.3781
 Frc consts  --      0.1396                 0.2383                 0.2483
 IR Inten    --      2.5671                 1.2794                 0.2630

                     10                     11                     12
                      A                      A                      A
 Frequencies --    107.8592               127.0834               129.5100
 Red. masses --     41.9466                36.9883                38.8487
 Frc consts  --      0.2875                 0.3520                 0.3839
 IR Inten    --      0.0678                 0.9057                 0.3331

                     13                     14                     15
                      A                      A                      A
 Frequencies --    136.3946               147.3048               151.6874
 Red. masses --     39.5982                43.3680                39.9796
 Frc consts  --      0.4340                 0.5544                 0.5420
 IR Inten    --      1.0038                 1.1161                 0.6615

                     16                     17                     18
                      A                      A                      A
 Frequencies --    154.6371               165.0215               171.3614
 Red. masses --     38.7952                36.9321                40.0449
 Frc consts  --      0.5466                 0.5926                 0.6928
 IR Inten    --      0.4840                 0.3317                 0.1559

                     19                     20                     21
                      A                      A                      A
 Frequencies --    178.2569               184.6853               186.8828
 Red. masses --     43.4697                38.7892                37.0177
 Frc consts  --      0.8138                 0.7795                 0.7617
 IR Inten    --      2.9551                 1.0799                 1.1581

                     22                     23                     24
                      A                      A                      A
 Frequencies --    199.6025               202.4856               222.5823
 Red. masses --     37.2447                37.1227                45.2040
 Frc consts  --      0.8743                 0.8968                 1.3195
 IR Inten    --      6.3589                 0.4067                 0.3092

                     25                     26                     27
                      A                      A                      A
 Frequencies --    231.5161               252.7922               267.5247
 Red. masses --     36.6780                40.5413                37.1425
 Frc consts  --      1.1583                 1.5264                 1.5662
 IR Inten    --      8.5241                 6.1793                 2.0491

                     28                     29                     30
                      A                      A                      A
 Frequencies --    280.4369               283.1983               302.9128
 Red. masses --     36.5744                37.3114                38.3088
 Frc consts  --      1.6947                 1.7631                 2.0710
 IR Inten    --      6.0516                23.0857                27.8592

                     31                     32                     33
                      A                      A                      A
 Frequencies --    321.0043               333.3657               359.6871
 Red. masses --     35.2808                41.2583                38.8721
 Frc consts  --      2.1420                 2.7015                 2.9630
 IR Inten    --     37.9738                10.7034                 7.6831

                     34                     35                     36
                      A                      A                      A
 Frequencies --    371.0748               372.8743               401.7489
 Red. masses --     38.9949                38.1584                34.9821
 Frc consts  --      3.1636                 3.1258                 3.3266
 IR Inten    --      2.1976                20.7911                12.4673

                     37                     38                     39
                      A                      A                      A
 Frequencies --    414.5426               433.5164               439.9607
 Red. masses --     37.7963                39.5232                40.5687
 Frc consts  --      3.8268                 4.3764                 4.6267
 IR Inten    --     76.7948                 8.7380                29.9295

                     40                     41                     42
                      A                      A                      A
 Frequencies --    443.7498               463.0480               538.4779
 Red. masses --     38.5714                38.5164                37.7914
 Frc consts  --      4.4750                 4.8657                 6.4562
 IR Inten    --      1.1305                 9.3869                75.6309

                     43                     44                     45
                      A                      A                      A
 Frequencies --    549.1173               552.7270               556.2909
 Red. masses --     37.2575                39.4308                40.5138
 Frc consts  --      6.6190                 7.0975                 7.3868
 IR Inten    --     62.1851                66.4770                66.2794

 - Thermochemistry -
 -------------------
 Temperature   298.150 Kelvin.  Pressure   1.00000 Atm.
 Atom     1 has atomic number 42 and mass  97.90550

 Molecular mass:   873.19236 amu.
 Principal axes and moments of inertia in atomic units:
                           1         2         3
     Eigenvalues --  ******************************
           X            0.76860  -0.63967   0.00865
           Y           -0.26262  -0.30317   0.91603
           Z            0.58334   0.70634   0.40101
 This molecule is an asymmetric top.
 Rotational symmetry number  1.
 Warning -- assumption of classical behavior for rotation
           may cause significant error
 Rotational temperatures (Kelvin)      0.00845     0.00340     0.00292
 Rotational constants (GHZ):           0.17611     0.07080     0.06093
 Zero-point vibrational energy      66966.2 (Joules/Mol)
                                   16.00531 (Kcal/Mol)
 Warning -- explicit consideration of  45 degrees of freedom as
           vibrations may cause significant error
 Vibrational temperatures:     25.06    44.56    60.55    88.79    93.13
          (Kelvin)            103.73   110.77   135.31   145.20   155.19
                              182.84   186.34   196.24   211.94   218.24
                              222.49   237.43   246.55   256.47   265.72
                              268.88   287.18   291.33   320.25   333.10
                              363.71   384.91   403.49   407.46   435.82
                              461.85   479.64   517.51   533.89   536.48
                              578.03   596.43   623.73   633.01   638.46
                              666.22   774.75   790.06   795.25   800.38

 Zero-point correction=                           0.025506 (Hartree/Particle)
 Thermal correction to Energy=                    0.051938
 Thermal correction to Enthalpy=                  0.052882
 Thermal correction to Gibbs Free Energy=        -0.035440
 Sum of electronic and zero-point Energies=          -5116.486873
 Sum of electronic and thermal Energies=             -5116.460441
 Sum of electronic and thermal Enthalpies=           -5116.459497
 Sum of electronic and thermal Free Energies=        -5116.547819

                     E (Thermal)             CV                S
                      KCal/Mol        Cal/Mol-Kelvin    Cal/Mol-Kelvin
 Total                   32.592             83.118            185.890
 Electronic               0.000              0.000              0.000
 Translational            0.889              2.981             46.177
 Rotational               0.889              2.981             37.290
 Vibrational             30.814             77.157            102.423
 Vibration     1          0.593              1.986              6.909
 Vibration     2          0.594              1.984              5.766
 Vibration     3          0.595              1.980              5.159
 Vibration     4          0.597              1.973              4.402
 Vibration     5          0.597              1.971              4.308
 Vibration     6          0.598              1.967              4.095
 Vibration     7          0.599              1.965              3.966
 Vibration     8          0.603              1.953              3.574
 Vibration     9          0.604              1.948              3.437
 Vibration    10          0.606              1.943              3.307
 Vibration    11          0.611              1.926              2.990
 Vibration    12          0.612              1.924              2.953
 Vibration    13          0.614              1.917              2.854
 Vibration    14          0.617              1.906              2.707
 Vibration    15          0.619              1.901              2.651
 Vibration    16          0.620              1.898              2.614
 Vibration    17          0.623              1.885              2.491
 Vibration    18          0.626              1.878              2.420
 Vibration    19          0.629              1.869              2.347
 Vibration    20          0.631              1.861              2.281
 Vibration    21          0.632              1.858              2.259
 Vibration    22          0.638              1.840              2.137
 Vibration    23          0.639              1.836              2.110
 Vibration    24          0.648              1.807              1.938
 Vibration    25          0.653              1.793              1.867
 Vibration    26          0.664              1.758              1.711
 Vibration    27          0.673              1.733              1.612
 Vibration    28          0.680              1.710              1.531
 Vibration    29          0.682              1.705              1.514
 Vibration    30          0.694              1.668              1.401
 Vibration    31          0.706              1.633              1.305
 Vibration    32          0.715              1.609              1.244
 Vibration    33          0.734              1.555              1.123
 Vibration    34          0.743              1.532              1.075
 Vibration    35          0.744              1.528              1.068
 Vibration    36          0.767              1.466              0.956
 Vibration    37          0.778              1.439              0.911
 Vibration    38          0.794              1.397              0.847
 Vibration    39          0.800              1.383              0.827
 Vibration    40          0.803              1.375              0.815
 Vibration    41          0.821              1.332              0.757
 Vibration    42          0.894              1.165              0.569
 Vibration    43          0.904              1.142              0.546
 Vibration    44          0.908              1.134              0.539
 Vibration    45          0.912              1.126              0.531

                           ! Non-Optimized Parameters !
 Normal termination of Gaussian 16 at Sun Dec 11 10:37:26 2022.
