 Gaussian 16, Revision C.01,
 Gaussian 16:  ES64L-G16RevC.01  3-Jul-2019

 ---------------------------------------
 # opt freq b3lyp/gen nosymm pseudo=read
 ---------------------------------------

 -------------------
 Title Card Required
 -------------------
 Symbolic Z-matrix:
 Charge =  0 Multiplicity = 1

 SCF Done:  E(RB3LYP) =  -6844.56990330     A.U. after   34 cycles
 SCF Done:  E(RB3LYP) =  -6844.58006663     A.U. after   20 cycles
 SCF Done:  E(RB3LYP) =  -6844.58259695     A.U. after   20 cycles
 SCF Done:  E(RB3LYP) =  -6844.58349723     A.U. after   19 cycles
 SCF Done:  E(RB3LYP) =  -6844.58491964     A.U. after   20 cycles
 SCF Done:  E(RB3LYP) =  -6844.58676621     A.U. after   20 cycles
 SCF Done:  E(RB3LYP) =  -6844.58707270     A.U. after   18 cycles
 SCF Done:  E(RB3LYP) =  -6844.59050466     A.U. after   21 cycles
 SCF Done:  E(RB3LYP) =  -6844.59875911     A.U. after   22 cycles
 SCF Done:  E(RB3LYP) =  -6844.59713256     A.U. after   21 cycles
 SCF Done:  E(RB3LYP) =  -6844.63092253     A.U. after   15 cycles
 SCF Done:  E(RB3LYP) =  -6844.63095402     A.U. after   16 cycles
 SCF Done:  E(RB3LYP) =  -6844.63096482     A.U. after   15 cycles
 SCF Done:  E(RB3LYP) =  -6844.63097554     A.U. after   15 cycles
 SCF Done:  E(RB3LYP) =  -6844.63097998     A.U. after   14 cycles
 SCF Done:  E(RB3LYP) =  -6844.63098215     A.U. after   13 cycles
 SCF Done:  E(RB3LYP) =  -6844.63098363     A.U. after   14 cycles
 SCF Done:  E(RB3LYP) =  -6844.63098429     A.U. after   13 cycles
 SCF Done:  E(RB3LYP) =  -6844.63098462     A.U. after   13 cycles
 Optimization completed.
    -- Stationary point found.
 Normal termination of Gaussian 16 at Fri Dec  9 19:02:14 2022.

 ------------------------------------------------------------------
 #N Geom=AllCheck Guess=TCheck SCRF=Check GenChk RB3LYP/ChkBas Freq
 ------------------------------------------------------------------

 Structure from the checkpoint file:  "/home/chesagar/scratch/Gau-198211.chk"
 -------------------
 Title Card Required
 -------------------
 Charge =  0 Multiplicity = 1

                          Input orientation:
 ---------------------------------------------------------------------
 Center     Atomic      Atomic             Coordinates (Angstroms)
 Number     Number       Type             X           Y           Z
 ---------------------------------------------------------------------
      1         42           0        0.461556    2.092732   12.248481
      2         16           0        1.452020    4.091399   12.084092
      3         16           0       -1.542845    2.509802   13.353166
      4         16           0       -0.410657    1.450841   10.109454
      5         16           0        2.093956    0.188609   11.584984
      6         42           0       -2.042996    2.891923   11.113667
      7         16           0       -3.378105    1.931596    9.107433
      8         16           0       -1.476919    5.026279   10.756746
      9         42           0        0.333240    3.664261   10.027151
     10         16           0       -0.433826    3.993279    7.658576
     11         16           0        2.542403    3.048042    9.005767
     12         42           0        3.606955    1.717237   10.525727
     13         42           0       -2.701190    3.724932    7.667198
     14         16           0        4.643812    2.762525   12.330497
     15         16           0        5.072523    0.549979    9.576257
     16         16           0       -3.991556    5.513228    8.415853
     17         16           0       -3.389441    3.242891    5.742079
     18         42           0       -4.793221    3.716282    9.666979
     19         16           0       -6.801298    3.297476    9.172487
     20         16           0       -4.338404    3.754296   11.866116
     21         42           0        3.325326    1.129091   13.345870
     22         16           0        4.530098   -0.312265   14.306632
     23         16           0        1.576909    1.866436   14.547234
 ---------------------------------------------------------------------

 SCF Done:  E(RB3LYP) =  -6844.63098462     A.U. after    2 cycles

 Alpha  occ. eigenvalues --  -88.93646 -88.93257 -88.93248 -88.92676 -88.92673
 Alpha  occ. eigenvalues --  -88.91871 -88.89563 -88.89553 -88.89317 -88.89310
 Alpha  occ. eigenvalues --  -88.88963 -88.88958 -88.88956 -88.88950 -88.88646
 Alpha  occ. eigenvalues --  -88.88640  -8.01176  -8.00878  -8.00868  -8.00312
 Alpha  occ. eigenvalues --   -8.00308  -7.99557  -7.97538  -7.97528  -7.97066
 Alpha  occ. eigenvalues --   -7.97059  -7.96741  -7.96735  -7.96714  -7.96707
 Alpha  occ. eigenvalues --   -7.96580  -7.96573  -5.97212  -5.97131  -5.97067
 Alpha  occ. eigenvalues --   -5.96890  -5.96879  -5.96833  -5.96824  -5.96768
 Alpha  occ. eigenvalues --   -5.96759  -5.96342  -5.96339  -5.96258  -5.96255
 Alpha  occ. eigenvalues --   -5.96201  -5.96198  -5.95586  -5.95481  -5.95449
 Alpha  occ. eigenvalues --   -5.93520  -5.93511  -5.93504  -5.93494  -5.93376
 Alpha  occ. eigenvalues --   -5.93366  -5.93124  -5.93118  -5.93007  -5.93000
 Alpha  occ. eigenvalues --   -5.92914  -5.92907  -5.92805  -5.92798  -5.92789
 Alpha  occ. eigenvalues --   -5.92782  -5.92688  -5.92683  -5.92681  -5.92677
 Alpha  occ. eigenvalues --   -5.92587  -5.92581  -5.92562  -5.92556  -5.92541
 Alpha  occ. eigenvalues --   -5.92534  -5.92508  -5.92501  -5.92435  -5.92428
 Alpha  occ. eigenvalues --   -2.58366  -2.57941  -2.57906  -2.56858  -2.56850
 Alpha  occ. eigenvalues --   -2.56526  -2.56520  -1.61925  -1.61315  -1.61131
 Alpha  occ. eigenvalues --   -1.60356  -1.60314  -1.60191  -1.60160  -1.60077
 Alpha  occ. eigenvalues --   -1.60015  -1.59799  -1.59738  -1.59427  -1.59419
 Alpha  occ. eigenvalues --   -1.58709  -1.58704  -1.58342  -1.58335  -1.58184
 Alpha  occ. eigenvalues --   -1.58177  -1.57969  -1.57962  -0.77997  -0.76105
 Alpha  occ. eigenvalues --   -0.76069  -0.75269  -0.75012  -0.74058  -0.72207
 Alpha  occ. eigenvalues --   -0.72194  -0.71920  -0.71675  -0.71096  -0.70934
 Alpha  occ. eigenvalues --   -0.70710  -0.70602  -0.69869  -0.69857  -0.45196
 Alpha  occ. eigenvalues --   -0.44521  -0.44358  -0.43332  -0.42885  -0.42524
 Alpha  occ. eigenvalues --   -0.42169  -0.42015  -0.41280  -0.40564  -0.40200
 Alpha  occ. eigenvalues --   -0.40114  -0.39523  -0.39202  -0.39030  -0.39030
 Alpha  occ. eigenvalues --   -0.38651  -0.38343  -0.38078  -0.37645  -0.37599
 Alpha  occ. eigenvalues --   -0.37249  -0.36745  -0.36739  -0.36466  -0.35640
 Alpha  occ. eigenvalues --   -0.35466  -0.35362  -0.35165  -0.35155  -0.34916
 Alpha  occ. eigenvalues --   -0.34398  -0.33888  -0.33756  -0.33607  -0.32935
 Alpha  occ. eigenvalues --   -0.32702  -0.32410  -0.31823  -0.31694  -0.31249
 Alpha  occ. eigenvalues --   -0.30783  -0.30031  -0.29905  -0.29412  -0.29282
 Alpha  occ. eigenvalues --   -0.28675  -0.28101  -0.27880  -0.27162  -0.26202
 Alpha  occ. eigenvalues --   -0.26010  -0.25688
 Alpha virt. eigenvalues --   -0.18622  -0.17995  -0.17596  -0.16973  -0.16449
 Alpha virt. eigenvalues --   -0.16068  -0.15435  -0.14185  -0.14126  -0.13774
 Alpha virt. eigenvalues --   -0.13630  -0.13215  -0.13115  -0.12806  -0.12747

 Mulliken charges:
               1
     1  Mo  -0.274387
     2  S    0.236982
     3  S    0.093331
     4  S    0.264902
     5  S    0.032449
     6  Mo  -0.274095
     7  S    0.032368
     8  S    0.236740
     9  Mo  -0.355977
    10  S   -0.081365
    11  S   -0.081148
    12  Mo   0.241262
    13  Mo   0.242059
    14  S   -0.009649
    15  S   -0.145258
    16  S   -0.009822
    17  S   -0.145552
    18  Mo   0.244090
    19  S   -0.201390
    20  S   -0.044296
    21  Mo   0.244253
    22  S   -0.201297
    23  S   -0.044200
 Sum of Mulliken charges =  -0.00000

 Dipole moment (field-independent basis, Debye):
    X=             -0.2440    Y=             -0.4095    Z=              0.2815  Tot=              0.5536
 Quadrupole moment (field-independent basis, Debye-Ang):
   XX=           -388.0479   YY=           -369.2751   ZZ=           -374.6457
   XY=              5.8126   XZ=             -6.7367   YZ=             -0.0952

  Exact polarizability:     970.822    -178.690     422.723     175.555     -86.823     658.808
 Approx polarizability:    2474.516    -323.932    1361.741     194.494    -201.242    2094.601

                      1                      2                      3
                      A                      A                      A
 Frequencies --     29.8653                30.5130                41.6639
 Red. masses --     40.4621                43.5063                44.4164
 Frc consts  --      0.0213                 0.0239                 0.0454
 IR Inten    --      0.2580                 0.0729                 0.1945

                      4                      5                      6
                      A                      A                      A
 Frequencies --     61.2906                63.2292                68.6772
 Red. masses --     41.5017                35.7316                47.4912
 Frc consts  --      0.0919                 0.0842                 0.1320
 IR Inten    --      0.2772                 0.0069                13.9791

                      7                      8                      9
                      A                      A                      A
 Frequencies --     71.8628                83.0594                84.6240
 Red. masses --     45.0463                36.7679                37.7281
 Frc consts  --      0.1371                 0.1495                 0.1592
 IR Inten    --      0.0255                 0.0006                 0.0653

                     10                     11                     12
                      A                      A                      A
 Frequencies --     88.2360                89.0492                93.5532
 Red. masses --     42.5661                44.6572                43.9548
 Frc consts  --      0.1953                 0.2086                 0.2267
 IR Inten    --      1.1733                 2.2349                 0.1229

                     13                     14                     15
                      A                      A                      A
 Frequencies --     95.2726               102.6374               113.4857
 Red. masses --     37.5279                43.4094                35.9431
 Frc consts  --      0.2007                 0.2694                 0.2727
 IR Inten    --      0.0734                 0.0678                 0.4984

                     16                     17                     18
                      A                      A                      A
 Frequencies --    114.3092               122.3148               126.5506
 Red. masses --     33.8999                39.4489                37.7523
 Frc consts  --      0.2610                 0.3477                 0.3562
 IR Inten    --      0.4046                 0.5588                 0.3405

                     19                     20                     21
                      A                      A                      A
 Frequencies --    127.3410               137.5719               139.5322
 Red. masses --     42.2216                42.2184                41.0858
 Frc consts  --      0.4034                 0.4708                 0.4713
 IR Inten    --      5.9057                 2.2192                 0.1109

                     22                     23                     24
                      A                      A                      A
 Frequencies --    150.5700               152.4220               164.6446
 Red. masses --     42.6545                41.6905                34.3261
 Frc consts  --      0.5698                 0.5707                 0.5482
 IR Inten    --      1.4702                 0.4450                 0.0774

                     25                     26                     27
                      A                      A                      A
 Frequencies --    169.6836               180.2549               180.5422
 Red. masses --     41.9083                36.3288                40.5867
 Frc consts  --      0.7109                 0.6955                 0.7795
 IR Inten    --      0.3021                 4.4563                 0.1484

                     28                     29                     30
                      A                      A                      A
 Frequencies --    188.4264               188.5131               191.9287
 Red. masses --     42.1312                50.9323                51.3022
 Frc consts  --      0.8813                 1.0664                 1.1134
 IR Inten    --      1.3794                 9.1862                 1.6575

                     31                     32                     33
                      A                      A                      A
 Frequencies --    195.1764               218.7129               220.8634
 Red. masses --     46.6115                40.6999                32.5477
 Frc consts  --      1.0462                 1.1471                 0.9354
 IR Inten    --      0.2163                 0.5542                 4.0616

                     34                     35                     36
                      A                      A                      A
 Frequencies --    234.9407               251.1646               263.8067
 Red. masses --     36.8788                34.6243                38.2512
 Frc consts  --      1.1993                 1.2869                 1.5684
 IR Inten    --      0.2257                82.8277                12.0317

                     37                     38                     39
                      A                      A                      A
 Frequencies --    267.5685               291.4331               297.3540
 Red. masses --     37.3696                39.3911                40.2006
 Frc consts  --      1.5763                 1.9712                 2.0943
 IR Inten    --      1.9498                20.5852                 0.1856

                     40                     41                     42
                      A                      A                      A
 Frequencies --    297.8887               304.3428               307.9370
 Red. masses --     37.7349                41.5011                37.7237
 Frc consts  --      1.9729                 2.2648                 2.1076
 IR Inten    --      0.0530                18.1477                14.5537

                     43                     44                     45
                      A                      A                      A
 Frequencies --    317.0866               330.5812               337.4670
 Red. masses --     35.5669                40.5666                41.3171
 Frc consts  --      2.1069                 2.6120                 2.7723
 IR Inten    --      0.6943                25.5866                 1.0913

                     46                     47                     48
                      A                      A                      A
 Frequencies --    348.6312               362.1439               376.9161
 Red. masses --     37.7415                43.7279                39.3004
 Frc consts  --      2.7027                 3.3789                 3.2896
 IR Inten    --      2.8864                 1.9048               105.5297

                     49                     50                     51
                      A                      A                      A
 Frequencies --    388.6863               404.0953               405.4415
 Red. masses --     36.9423                35.7225                36.5135
 Frc consts  --      3.2883                 3.4368                 3.5364
 IR Inten    --      6.4677                 9.9214                 6.1981

                     52                     53                     54
                      A                      A                      A
 Frequencies --    425.2738               428.3549               431.0936
 Red. masses --     37.9975                36.1182                38.2077
 Frc consts  --      4.0490                 3.9047                 4.1835
 IR Inten    --      7.1939                 2.3751                 0.6647

                     55                     56                     57
                      A                      A                      A
 Frequencies --    440.8991               446.5612               453.9565
 Red. masses --     39.4205                39.9108                39.8066
 Frc consts  --      4.5149                 4.6892                 4.8332
 IR Inten    --      4.7362                52.3098                15.7026

                     58                     59                     60
                      A                      A                      A
 Frequencies --    460.4393               479.3483               570.7540
 Red. masses --     38.5916                38.7526                39.5502
 Frc consts  --      4.8205                 5.2463                 7.5910
 IR Inten    --      4.2277                 7.2598               165.0272

                     61                     62                     63
                      A                      A                      A
 Frequencies --    571.3101               575.7125               577.8174
 Red. masses --     39.4983                39.1336                39.2109
 Frc consts  --      7.5958                 7.6421                 7.7133
 IR Inten    --     59.0198               175.2331                81.1666

 - Thermochemistry -
 -------------------
 Temperature   298.150 Kelvin.  Pressure   1.00000 Atm.
 Atom     1 has atomic number 42 and mass  97.90550

 Molecular mass:  1196.89165 amu.
 Principal axes and moments of inertia in atomic units:
                           1         2         3
     Eigenvalues --  ******************************
           X            0.87477  -0.43549   0.21242
           Y           -0.27863  -0.09347   0.95584
           Z            0.39640   0.89533   0.20310
 This molecule is an asymmetric top.
 Rotational symmetry number  1.
 Warning -- assumption of classical behavior for rotation
           may cause significant error
 Rotational temperatures (Kelvin)      0.00596     0.00156     0.00136
 Rotational constants (GHZ):           0.12414     0.03252     0.02844
 Zero-point vibrational energy      94118.5 (Joules/Mol)
                                   22.49486 (Kcal/Mol)
 Warning -- explicit consideration of  63 degrees of freedom as
           vibrations may cause significant error
 Vibrational temperatures:     42.97    43.90    59.94    88.18    90.97
          (Kelvin)             98.81   103.39   119.50   121.76   126.95
                              128.12   134.60   137.08   147.67   163.28
                              164.47   175.98   182.08   183.22   197.94
                              200.76   216.64   219.30   236.89   244.14
                              259.35   259.76   271.10   271.23   276.14
                              280.82   314.68   317.77   338.03   361.37
                              379.56   384.97   419.31   427.83   428.60
                              437.88   443.05   456.22   475.63   485.54
                              501.60   521.04   542.30   559.23   581.40
                              583.34   611.87   616.31   620.25   634.36
                              642.50   653.14   662.47   689.68   821.19
                              821.99   828.32   831.35

 Zero-point correction=                           0.035848 (Hartree/Particle)
 Thermal correction to Energy=                    0.071615
 Thermal correction to Enthalpy=                  0.072559
 Thermal correction to Gibbs Free Energy=        -0.035234
 Sum of electronic and zero-point Energies=          -6844.595137
 Sum of electronic and thermal Energies=             -6844.559369
 Sum of electronic and thermal Enthalpies=           -6844.558425
 Sum of electronic and thermal Free Energies=        -6844.666218

                     E (Thermal)             CV                S
                      KCal/Mol        Cal/Mol-Kelvin    Cal/Mol-Kelvin
 Total                   44.939            113.919            226.870
 Electronic               0.000              0.000              0.000
 Translational            0.889              2.981             47.117
 Rotational               0.889              2.981             39.168
 Vibrational             43.162            107.957            140.585
 Vibration     1          0.594              1.984              5.838
 Vibration     2          0.594              1.984              5.796
 Vibration     3          0.594              1.981              5.178
 Vibration     4          0.597              1.973              4.415
 Vibration     5          0.597              1.972              4.354
 Vibration     6          0.598              1.969              4.191
 Vibration     7          0.598              1.967              4.102
 Vibration     8          0.600              1.961              3.817
 Vibration     9          0.601              1.960              3.781
 Vibration    10          0.601              1.957              3.699
 Vibration    11          0.602              1.957              3.681
 Vibration    12          0.603              1.954              3.584
 Vibration    13          0.603              1.953              3.549
 Vibration    14          0.605              1.947              3.404
 Vibration    15          0.607              1.938              3.208
 Vibration    16          0.607              1.938              3.194
 Vibration    17          0.610              1.931              3.063
 Vibration    18          0.611              1.927              2.998
 Vibration    19          0.611              1.926              2.986
 Vibration    20          0.614              1.916              2.837
 Vibration    21          0.615              1.914              2.810
 Vibration    22          0.618              1.902              2.665
 Vibration    23          0.619              1.900              2.642
 Vibration    24          0.623              1.886              2.496
 Vibration    25          0.625              1.880              2.439
 Vibration    26          0.629              1.867              2.326
 Vibration    27          0.629              1.866              2.323
 Vibration    28          0.633              1.856              2.243
 Vibration    29          0.633              1.856              2.242
 Vibration    30          0.634              1.851              2.209
 Vibration    31          0.636              1.847              2.178
 Vibration    32          0.646              1.813              1.970
 Vibration    33          0.648              1.809              1.952
 Vibration    34          0.655              1.787              1.841
 Vibration    35          0.663              1.761              1.722
 Vibration    36          0.670              1.739              1.636
 Vibration    37          0.673              1.733              1.612
 Vibration    38          0.687              1.690              1.466
 Vibration    39          0.691              1.679              1.432
 Vibration    40          0.691              1.678              1.429
 Vibration    41          0.695              1.665              1.393
 Vibration    42          0.698              1.659              1.373
 Vibration    43          0.704              1.641              1.325
 Vibration    44          0.713              1.614              1.257
 Vibration    45          0.718              1.601              1.224
 Vibration    46          0.726              1.578              1.172
 Vibration    47          0.736              1.550              1.113
 Vibration    48          0.747              1.519              1.052
 Vibration    49          0.757              1.494              1.005
 Vibration    50          0.769              1.461              0.948
 Vibration    51          0.770              1.458              0.943
 Vibration    52          0.787              1.415              0.874
 Vibration    53          0.790              1.409              0.864
 Vibration    54          0.792              1.403              0.855
 Vibration    55          0.801              1.381              0.824
 Vibration    56          0.806              1.368              0.806
 Vibration    57          0.812              1.352              0.784
 Vibration    58          0.818              1.338              0.765
 Vibration    59          0.836              1.296              0.712
 Vibration    60          0.927              1.095              0.503
 Vibration    61          0.927              1.093              0.502
 Vibration    62          0.932              1.084              0.493
 Vibration    63          0.934              1.079              0.489

                           ! Non-Optimized Parameters !
 Normal termination of Gaussian 16 at Fri Dec  9 19:07:35 2022.
