 Gaussian 16, Revision C.01,
 Gaussian 16:  ES64L-G16RevC.01  3-Jul-2019

 ---------------------------------------
 # opt freq b3lyp/gen nosymm pseudo=read
 ---------------------------------------

 -------------------
 Title Card Required
 -------------------
 Symbolic Z-matrix:
 Charge =  0 Multiplicity = 1

 SCF Done:  E(RB3LYP) =  -8572.70958314     A.U. after   37 cycles
 SCF Done:  E(RB3LYP) =  -8572.72189670     A.U. after   21 cycles
 SCF Done:  E(RB3LYP) =  -8572.72232586     A.U. after   22 cycles
 SCF Done:  E(RB3LYP) =  -8572.72263772     A.U. after   20 cycles
 SCF Done:  E(RB3LYP) =  -8572.72279368     A.U. after   19 cycles
 SCF Done:  E(RB3LYP) =  -8572.72288663     A.U. after   19 cycles
 SCF Done:  E(RB3LYP) =  -8572.72291100     A.U. after   18 cycles
 SCF Done:  E(RB3LYP) =  -8572.72292182     A.U. after   18 cycles
 SCF Done:  E(RB3LYP) =  -8572.72292581     A.U. after   17 cycles
 SCF Done:  E(RB3LYP) =  -8572.72292935     A.U. after   17 cycles
 SCF Done:  E(RB3LYP) =  -8572.72293103     A.U. after   16 cycles
 SCF Done:  E(RB3LYP) =  -8572.72293256     A.U. after   16 cycles
 SCF Done:  E(RB3LYP) =  -8572.72293451     A.U. after   18 cycles
 SCF Done:  E(RB3LYP) =  -8572.72293673     A.U. after   18 cycles
 SCF Done:  E(RB3LYP) =  -8572.72293865     A.U. after   18 cycles
 SCF Done:  E(RB3LYP) =  -8572.72293988     A.U. after   18 cycles
 SCF Done:  E(RB3LYP) =  -8572.72294037     A.U. after   14 cycles
 Optimization completed.
    -- Stationary point found.
 Normal termination of Gaussian 16 at Sun Dec 11 11:06:42 2022.

 ------------------------------------------------------------------
 #N Geom=AllCheck Guess=TCheck SCRF=Check GenChk RB3LYP/ChkBas Freq
 ------------------------------------------------------------------

 Structure from the checkpoint file:  "/home/chesagar/scratch/Gau-39863.chk"
 -------------------
 Title Card Required
 -------------------
 Charge =  0 Multiplicity = 1

                          Input orientation:
 ---------------------------------------------------------------------
 Center     Atomic      Atomic             Coordinates (Angstroms)
 Number     Number       Type             X           Y           Z
 ---------------------------------------------------------------------
      1         42           0        0.422685    1.852384   12.122062
      2         16           0        1.326506    3.980789   11.777373
      3         16           0       -1.607237    2.432540   13.208942
      4         16           0       -0.497451    1.025346   10.064850
      5         16           0        2.239565    0.255658   11.353332
      6         42           0       -2.109617    2.553923   10.937989
      7         16           0       -3.404047    1.758017    8.965405
      8         16           0       -1.506860    4.797481   10.536106
      9         42           0        0.282035    3.299805    9.659507
     10         16           0       -0.842658    2.909349    7.344447
     11         16           0        2.265861    2.259250    8.589276
     12         42           0        2.866594    2.559505   10.732785
     13         42           0       -2.584316    4.094803    8.600505
     14         16           0        4.382900    2.442616   12.989390
     15         16           0        4.777628    3.993828   10.299074
     16         16           0       -4.680862    5.174988    8.892975
     17         16           0       -2.013720    6.305352    7.533423
     18         42           0       -5.013219    3.132056    9.875630
     19         16           0       -6.968574    2.405321    9.483046
     20         16           0       -4.450773    3.255379   11.997384
     21         42           0        2.941079    0.848861   13.475574
     22         16           0        3.801729   -0.753116   14.564450
     23         16           0        1.152523    1.691227   14.517489
     24         42           0       -0.215233    5.113503    7.080000
     25         16           0        0.422310    5.475149    5.099761
     26         16           0        1.310042    5.581038    8.777162
     27         42           0        3.706333    5.023256    8.535548
     28         16           0        4.298080    4.197071    6.671678
     29         16           0        4.469291    6.998431    8.632914
 ---------------------------------------------------------------------

 SCF Done:  E(RB3LYP) =  -8572.72294037     A.U. after    3 cycles

 Alpha  occ. eigenvalues --  -88.93403 -88.93260 -88.93177 -88.92703 -88.92202
 Alpha  occ. eigenvalues --  -88.92081 -88.91888 -88.91752 -88.91420 -88.90539
 Alpha  occ. eigenvalues --  -88.90059 -88.90028 -88.89832 -88.89752 -88.89672
 Alpha  occ. eigenvalues --  -88.89511 -88.89482 -88.89341 -88.88545 -88.88172
 Alpha  occ. eigenvalues --   -8.00745  -8.00639  -8.00638  -8.00254  -7.99868
 Alpha  occ. eigenvalues --   -7.99615  -7.99391  -7.99180  -7.99119  -7.98407
 Alpha  occ. eigenvalues --   -7.97931  -7.97749  -7.97666  -7.97569  -7.97415
 Alpha  occ. eigenvalues --   -7.97247  -7.97072  -7.97056  -7.96444  -7.96052
 Alpha  occ. eigenvalues --   -5.96754  -5.96729  -5.96686  -5.96677  -5.96653
 Alpha  occ. eigenvalues --   -5.96632  -5.96615  -5.96565  -5.96501  -5.96268
 Alpha  occ. eigenvalues --   -5.96243  -5.96133  -5.95955  -5.95844  -5.95687
 Alpha  occ. eigenvalues --   -5.95643  -5.95598  -5.95493  -5.95453  -5.95357
 Alpha  occ. eigenvalues --   -5.95257  -5.95230  -5.95181  -5.95153  -5.95076
 Alpha  occ. eigenvalues --   -5.95069  -5.94949  -5.94432  -5.94341  -5.94262
 Alpha  occ. eigenvalues --   -5.94011  -5.93871  -5.93815  -5.93767  -5.93723
 Alpha  occ. eigenvalues --   -5.93719  -5.93675  -5.93612  -5.93601  -5.93517
 Alpha  occ. eigenvalues --   -5.93514  -5.93419  -5.93376  -5.93369  -5.93314
 Alpha  occ. eigenvalues --   -5.93205  -5.93205  -5.93201  -5.93175  -5.93005
 Alpha  occ. eigenvalues --   -5.93001  -5.92998  -5.92893  -5.92836  -5.92437
 Alpha  occ. eigenvalues --   -5.92386  -5.92318  -5.92073  -5.91986  -5.91911
 Alpha  occ. eigenvalues --   -2.59130  -2.58869  -2.57709  -2.57249  -2.56973
 Alpha  occ. eigenvalues --   -2.55873  -2.55687  -2.55496  -2.54872  -1.61929
 Alpha  occ. eigenvalues --   -1.61414  -1.61350  -1.61187  -1.61042  -1.60767
 Alpha  occ. eigenvalues --   -1.60480  -1.60149  -1.60110  -1.59929  -1.59791
 Alpha  occ. eigenvalues --   -1.59648  -1.59398  -1.59284  -1.59124  -1.58797
 Alpha  occ. eigenvalues --   -1.58662  -1.58251  -1.58090  -1.57940  -1.57694
 Alpha  occ. eigenvalues --   -1.57359  -1.57199  -1.56830  -1.56647  -1.56643
 Alpha  occ. eigenvalues --   -1.56536  -0.77968  -0.76242  -0.75970  -0.75375
 Alpha  occ. eigenvalues --   -0.75214  -0.74734  -0.74157  -0.73885  -0.73360
 Alpha  occ. eigenvalues --   -0.72687  -0.72528  -0.72320  -0.71887  -0.71646
 Alpha  occ. eigenvalues --   -0.71522  -0.71082  -0.70742  -0.70565  -0.69716
 Alpha  occ. eigenvalues --   -0.69387  -0.45366  -0.45174  -0.44749  -0.44085
 Alpha  occ. eigenvalues --   -0.43301  -0.42945  -0.42556  -0.42408  -0.41957
 Alpha  occ. eigenvalues --   -0.41607  -0.41381  -0.41130  -0.40597  -0.40323
 Alpha  occ. eigenvalues --   -0.40026  -0.39970  -0.39579  -0.39491  -0.39341
 Alpha  occ. eigenvalues --   -0.39151  -0.38780  -0.38549  -0.38474  -0.38398
 Alpha  occ. eigenvalues --   -0.38015  -0.37849  -0.37734  -0.37356  -0.37021
 Alpha  occ. eigenvalues --   -0.36798  -0.36449  -0.36386  -0.36167  -0.36033
 Alpha  occ. eigenvalues --   -0.35972  -0.35756  -0.35431  -0.35118  -0.34940
 Alpha  occ. eigenvalues --   -0.34745  -0.34310  -0.34138  -0.33855  -0.33321
 Alpha  occ. eigenvalues --   -0.33219  -0.32873  -0.32605  -0.32134  -0.31915
 Alpha  occ. eigenvalues --   -0.31784  -0.31358  -0.31012  -0.30349  -0.30061
 Alpha  occ. eigenvalues --   -0.29967  -0.29680  -0.29393  -0.28856  -0.28660
 Alpha  occ. eigenvalues --   -0.28168  -0.27930  -0.27306  -0.26623  -0.26080
 Alpha  occ. eigenvalues --   -0.25682  -0.24948  -0.24237
 Alpha virt. eigenvalues --   -0.18747  -0.18004  -0.17117  -0.16755  -0.16296
 Alpha virt. eigenvalues --   -0.15827  -0.15427  -0.15057  -0.14842  -0.14605
 Alpha virt. eigenvalues --   -0.14239  -0.14110  -0.13984  -0.13318  -0.13003

 Mulliken charges:
               1
     1  Mo  -0.256558
     2  S    0.354186
     3  S    0.044329
     4  S    0.221911
     5  S    0.096914
     6  Mo  -0.187940
     7  S    0.104568
     8  S    0.348004
     9  Mo  -0.706263
    10  S    0.111856
    11  S    0.171805
    12  Mo  -0.294249
    13  Mo  -0.320493
    14  S   -0.049377
    15  S   -0.018803
    16  S    0.008438
    17  S    0.048366
    18  Mo   0.290537
    19  S   -0.209473
    20  S   -0.039975
    21  Mo   0.315155
    22  S   -0.190900
    23  S   -0.006956
    24  Mo   0.342779
    25  S   -0.155494
    26  S   -0.040000
    27  Mo   0.215765
    28  S   -0.109069
    29  S   -0.089061
 Sum of Mulliken charges =  -0.00000

 Dipole moment (field-independent basis, Debye):
    X=              0.4844    Y=              0.1060    Z=             -2.6689  Tot=              2.7146
 Quadrupole moment (field-independent basis, Debye-Ang):
   XX=           -486.9142   YY=           -466.8651   ZZ=           -528.0448
   XY=              2.4070   XZ=              3.3085   YZ=             -5.8342

  Exact polarizability:    1112.415      -5.543     637.956      62.986    -236.689     807.276
 Approx polarizability:    3202.658     -11.483    2077.534      -1.033    -562.359    2700.964

                      1                      2                      3
                      A                      A                      A
 Frequencies --     21.7584                27.0585                36.0998
 Red. masses --     35.6127                39.8813                37.2493
 Frc consts  --      0.0099                 0.0172                 0.0286
 IR Inten    --      0.2012                 0.2343                 0.3903

                      4                      5                      6
                      A                      A                      A
 Frequencies --     44.6798                49.3417                56.5874
 Red. masses --     42.2505                37.9976                36.0458
 Frc consts  --      0.0497                 0.0545                 0.0680
 IR Inten    --      0.0470                 0.7956                 0.0962

                      7                      8                      9
                      A                      A                      A
 Frequencies --     64.6944                68.6631                73.3820
 Red. masses --     41.4696                41.5335                37.9206
 Frc consts  --      0.1023                 0.1154                 0.1203
 IR Inten    --      0.3813                 1.6430                 0.3284

                     10                     11                     12
                      A                      A                      A
 Frequencies --     74.4754                81.1207                84.0498
 Red. masses --     39.8503                41.7048                37.0635
 Frc consts  --      0.1302                 0.1617                 0.1543
 IR Inten    --      0.8018                 0.4615                 0.0703

                     13                     14                     15
                      A                      A                      A
 Frequencies --     86.3335                90.0337                94.6962
 Red. masses --     43.3256                42.9662                39.0844
 Frc consts  --      0.1903                 0.2052                 0.2065
 IR Inten    --      2.8704                 0.9268                 1.4111

                     16                     17                     18
                      A                      A                      A
 Frequencies --    102.6587               108.6336               111.1018
 Red. masses --     43.8304                44.7897                44.1261
 Frc consts  --      0.2722                 0.3114                 0.3209
 IR Inten    --      3.0368                 2.8793                 0.1993

                     19                     20                     21
                      A                      A                      A
 Frequencies --    118.0307               124.0002               128.5922
 Red. masses --     45.6975                40.0122                49.2691
 Frc consts  --      0.3751                 0.3625                 0.4800
 IR Inten    --      0.5214                 2.1943                 1.9068

                     22                     23                     24
                      A                      A                      A
 Frequencies --    135.3628               140.6107               141.8567
 Red. masses --     46.9672                47.0958                46.0431
 Frc consts  --      0.5070                 0.5486                 0.5459
 IR Inten    --      1.5090                 0.1224                 2.5092

                     25                     26                     27
                      A                      A                      A
 Frequencies --    144.7619               146.7197               150.2694
 Red. masses --     42.8775                42.3224                45.9759
 Frc consts  --      0.5294                 0.5368                 0.6117
 IR Inten    --      1.6384                 0.5318                13.8454

                     28                     29                     30
                      A                      A                      A
 Frequencies --    153.4684               155.3188               159.7233
 Red. masses --     45.5420                38.6051                45.3871
 Frc consts  --      0.6320                 0.5487                 0.6822
 IR Inten    --      0.3673                 0.3743                 0.3770

                     31                     32                     33
                      A                      A                      A
 Frequencies --    166.5305               170.4291               172.8320
 Red. masses --     44.0264                44.3333                48.2086
 Frc consts  --      0.7194                 0.7587                 0.8484
 IR Inten    --      0.2579                 0.1270                 0.7326

                     34                     35                     36
                      A                      A                      A
 Frequencies --    179.5705               183.9923               189.3129
 Red. masses --     44.2495                44.6173                43.2276
 Frc consts  --      0.8407                 0.8899                 0.9128
 IR Inten    --      9.0572                 0.4677                 0.1200

                     37                     38                     39
                      A                      A                      A
 Frequencies --    191.7021               195.4744               203.6153
 Red. masses --     44.4074                42.5523                40.0763
 Frc consts  --      0.9615                 0.9580                 0.9789
 IR Inten    --      7.9517                 1.8104                 0.4303

                     40                     41                     42
                      A                      A                      A
 Frequencies --    207.2069               212.3412               220.5241
 Red. masses --     40.9276                39.2895                41.7192
 Frc consts  --      1.0353                 1.0437                 1.1954
 IR Inten    --      1.3052                 0.7183                 1.2036

                     43                     44                     45
                      A                      A                      A
 Frequencies --    229.9317               235.3756               243.3963
 Red. masses --     35.3312                38.5911                37.0313
 Frc consts  --      1.1005                 1.2597                 1.2926
 IR Inten    --      0.7356                 2.5864                 0.5441

                     46                     47                     48
                      A                      A                      A
 Frequencies --    250.2158               262.5643               267.0085
 Red. masses --     34.8459                40.2109                39.3750
 Frc consts  --      1.2854                 1.6333                 1.6539
 IR Inten    --      1.7802                 4.1219                 3.0660

                     49                     50                     51
                      A                      A                      A
 Frequencies --    283.4394               284.9939               293.1336
 Red. masses --     35.5080                37.9343                36.7385
 Frc consts  --      1.6807                 1.8153                 1.8600
 IR Inten    --      5.7056                 1.5648                 5.6494

                     52                     53                     54
                      A                      A                      A
 Frequencies --    298.3148               302.0359               305.0230
 Red. masses --     37.9346                35.9270                36.1640
 Frc consts  --      1.9890                 1.9310                 1.9824
 IR Inten    --      4.1180                 4.5154                 1.5580

                     55                     56                     57
                      A                      A                      A
 Frequencies --    311.2908               315.2579               320.9614
 Red. masses --     38.2517                36.4280                37.9235
 Frc consts  --      2.1839                 2.1331                 2.3018
 IR Inten    --     22.2200                 2.3085                 1.0100

                     58                     59                     60
                      A                      A                      A
 Frequencies --    334.9894               341.6867               361.5334
 Red. masses --     42.1998                35.6964                41.8010
 Frc consts  --      2.7901                 2.4554                 3.2191
 IR Inten    --      2.6064                 1.9153                 2.9150

                     61                     62                     63
                      A                      A                      A
 Frequencies --    368.5993               384.1326               400.0600
 Red. masses --     39.3111                38.1339                35.2334
 Frc consts  --      3.1468                 3.3153                 3.3224
 IR Inten    --      0.9978                16.8423                25.3214

                     64                     65                     66
                      A                      A                      A
 Frequencies --    408.0443               415.7012               423.8304
 Red. masses --     35.6805                36.7031                35.0025
 Frc consts  --      3.5002                 3.7369                 3.7045
 IR Inten    --      0.5015                 3.6099                 2.5117

                     67                     68                     69
                      A                      A                      A
 Frequencies --    427.7272               429.9289               435.3161
 Red. masses --     36.0819                36.5027                38.0099
 Frc consts  --      3.8893                 3.9753                 4.2438
 IR Inten    --      7.1933                 1.1249                 3.6838

                     70                     71                     72
                      A                      A                      A
 Frequencies --    436.1086               450.8447               454.3771
 Red. masses --     37.9840                38.9433                38.6099
 Frc consts  --      4.2564                 4.6638                 4.6966
 IR Inten    --      7.8273                 7.5773                 0.3523

                     73                     74                     75
                      A                      A                      A
 Frequencies --    465.4654               473.3089               482.6991
 Red. masses --     38.8398                39.3330                38.9619
 Frc consts  --      4.9580                 5.1915                 5.3486
 IR Inten    --      4.5467                17.3636                18.1816

                     76                     77                     78
                      A                      A                      A
 Frequencies --    485.0113               537.5815               546.0647
 Red. masses --     39.0391                37.3272                39.8210
 Frc consts  --      5.4107                 6.3557                 6.9960
 IR Inten    --     12.1025                37.6695                77.1863

                     79                     80                     81
                      A                      A                      A
 Frequencies --    561.5161               563.5074               568.8141
 Red. masses --     40.0861                40.0065                39.7002
 Frc consts  --      7.4468                 7.4848                 7.5680
 IR Inten    --    228.7042               160.7333                80.3714

 - Thermochemistry -
 -------------------
 Temperature   298.150 Kelvin.  Pressure   1.00000 Atm.
 Atom     1 has atomic number 42 and mass  97.90550

 Molecular mass:  1520.59094 amu.
 Principal axes and moments of inertia in atomic units:
                           1         2         3
     Eigenvalues --  ******************************
           X            0.93773  -0.34422  -0.04650
           Y           -0.16488  -0.55895   0.81265
           Z            0.30573   0.75438   0.58090
 This molecule is an asymmetric top.
 Rotational symmetry number  1.
 Warning -- assumption of classical behavior for rotation
           may cause significant error
 Rotational temperatures (Kelvin)      0.00231     0.00156     0.00103
 Rotational constants (GHZ):           0.04806     0.03254     0.02148
 Zero-point vibrational energy     120986.8 (Joules/Mol)
                                   28.91653 (Kcal/Mol)
 Warning -- explicit consideration of  81 degrees of freedom as
           vibrations may cause significant error
 Vibrational temperatures:     31.31    38.93    51.94    64.28    70.99
          (Kelvin)             81.42    93.08    98.79   105.58   107.15
                              116.71   120.93   124.21   129.54   136.25
                              147.70   156.30   159.85   169.82   178.41
                              185.02   194.76   202.31   204.10   208.28
                              211.10   216.20   220.81   223.47   229.81
                              239.60   245.21   248.67   258.36   264.72
                              272.38   275.82   281.24   292.96   298.12
                              305.51   317.28   330.82   338.65   350.19
                              360.00   377.77   384.17   407.81   410.04
                              421.75   429.21   434.56   438.86   447.88
                              453.59   461.79   481.98   491.61   520.17
                              530.33   552.68   575.60   587.08   598.10
                              609.80   615.40   618.57   626.32   627.46
                              648.66   653.75   669.70   680.99   694.50
                              697.82   773.46   785.67   807.90   810.76
                              818.40

 Zero-point correction=                           0.046081 (Hartree/Particle)
 Thermal correction to Energy=                    0.091193
 Thermal correction to Enthalpy=                  0.092137
 Thermal correction to Gibbs Free Energy=        -0.035687
 Sum of electronic and zero-point Energies=          -8572.676859
 Sum of electronic and thermal Energies=             -8572.631747
 Sum of electronic and thermal Enthalpies=           -8572.630803
 Sum of electronic and thermal Free Energies=        -8572.758627

                     E (Thermal)             CV                S
                      KCal/Mol        Cal/Mol-Kelvin    Cal/Mol-Kelvin
 Total                   57.225            144.839            269.029
 Electronic               0.000              0.000              0.000
 Translational            0.889              2.981             47.831
 Rotational               0.889              2.981             40.389
 Vibrational             55.447            138.877            180.809
 Vibration     1          0.593              1.985              6.467
 Vibration     2          0.593              1.984              6.034
 Vibration     3          0.594              1.982              5.462
 Vibration     4          0.595              1.980              5.040
 Vibration     5          0.595              1.978              4.844
 Vibration     6          0.596              1.975              4.573
 Vibration     7          0.597              1.971              4.309
 Vibration     8          0.598              1.969              4.191
 Vibration     9          0.599              1.967              4.061
 Vibration    10          0.599              1.966              4.031
 Vibration    11          0.600              1.962              3.864
 Vibration    12          0.601              1.960              3.794
 Vibration    13          0.601              1.959              3.741
 Vibration    14          0.602              1.956              3.659
 Vibration    15          0.603              1.953              3.561
 Vibration    16          0.605              1.947              3.403
 Vibration    17          0.606              1.942              3.293
 Vibration    18          0.607              1.940              3.250
 Vibration    19          0.608              1.934              3.132
 Vibration    20          0.610              1.929              3.037
 Vibration    21          0.611              1.925              2.967
 Vibration    22          0.613              1.918              2.868
 Vibration    23          0.615              1.913              2.796
 Vibration    24          0.615              1.911              2.779
 Vibration    25          0.616              1.908              2.740
 Vibration    26          0.617              1.906              2.714
 Vibration    27          0.618              1.902              2.669
 Vibration    28          0.619              1.899              2.629
 Vibration    29          0.620              1.897              2.606
 Vibration    30          0.622              1.892              2.553
 Vibration    31          0.624              1.884              2.474
 Vibration    32          0.626              1.879              2.431
 Vibration    33          0.626              1.876              2.404
 Vibration    34          0.629              1.867              2.333
 Vibration    35          0.631              1.862              2.288
 Vibration    36          0.633              1.855              2.235
 Vibration    37          0.634              1.851              2.211
 Vibration    38          0.636              1.846              2.175
 Vibration    39          0.639              1.835              2.100
 Vibration    40          0.641              1.830              2.068
 Vibration    41          0.643              1.822              2.023
 Vibration    42          0.647              1.810              1.955
 Vibration    43          0.652              1.795              1.879
 Vibration    44          0.655              1.787              1.838
 Vibration    45          0.659              1.774              1.778
 Vibration    46          0.663              1.762              1.729
 Vibration    47          0.670              1.741              1.645
 Vibration    48          0.672              1.734              1.615
 Vibration    49          0.682              1.704              1.513
 Vibration    50          0.683              1.702              1.504
 Vibration    51          0.688              1.687              1.456
 Vibration    52          0.691              1.677              1.426
 Vibration    53          0.694              1.670              1.406
 Vibration    54          0.696              1.664              1.389
 Vibration    55          0.700              1.652              1.355
 Vibration    56          0.703              1.645              1.335
 Vibration    57          0.706              1.633              1.305
 Vibration    58          0.716              1.606              1.236
 Vibration    59          0.721              1.592              1.204
 Vibration    60          0.736              1.551              1.116
 Vibration    61          0.741              1.537              1.086
 Vibration    62          0.753              1.504              1.023
 Vibration    63          0.766              1.470              0.962
 Vibration    64          0.773              1.453              0.934
 Vibration    65          0.779              1.436              0.907
 Vibration    66          0.786              1.418              0.879
 Vibration    67          0.789              1.410              0.866
 Vibration    68          0.791              1.405              0.859
 Vibration    69          0.796              1.393              0.841
 Vibration    70          0.797              1.391              0.839
 Vibration    71          0.810              1.359              0.793
 Vibration    72          0.813              1.351              0.783
 Vibration    73          0.823              1.327              0.750
 Vibration    74          0.830              1.309              0.728
 Vibration    75          0.839              1.288              0.703
 Vibration    76          0.841              1.283              0.697
 Vibration    77          0.893              1.167              0.571
 Vibration    78          0.901              1.148              0.552
 Vibration    79          0.917              1.115              0.521
 Vibration    80          0.919              1.110              0.517
 Vibration    81          0.925              1.099              0.507

                           ! Non-Optimized Parameters !
 Normal termination of Gaussian 16 at Sun Dec 11 11:18:48 2022.
