 Gaussian 16, Revision C.01,
 Gaussian 16:  ES64L-G16RevC.01  3-Jul-2019

 ---------------------------------------
 # opt freq b3lyp/gen nosymm pseudo=read
 ---------------------------------------

 -------------------
 Title Card Required
 -------------------
 Symbolic Z-matrix:
 Charge =  0 Multiplicity = 1

 SCF Done:  E(RB3LYP) =  -407.528945944     A.U. after   15 cycles
 SCF Done:  E(RB3LYP) =  -407.528945680     A.U. after   10 cycles
 SCF Done:  E(RB3LYP) =  -407.528946819     A.U. after   10 cycles
 Optimization completed.
    -- Stationary point found.
 Normal termination of Gaussian 16 at Thu Nov  4 09:58:53 2021.

 ------------------------------------------------------------------
 #N Geom=AllCheck Guess=TCheck SCRF=Check GenChk RB3LYP/ChkBas Freq
 ------------------------------------------------------------------

 Structure from the checkpoint file:  "MoCO3.chk"
 -------------------
 Title Card Required
 -------------------
 Charge =  0 Multiplicity = 1

                          Input orientation:
 ---------------------------------------------------------------------
 Center     Atomic      Atomic             Coordinates (Angstroms)
 Number     Number       Type             X           Y           Z
 ---------------------------------------------------------------------
      1         42           0        0.803144   -0.467066   -0.785617
      2          6           0        2.704507   -0.796473   -0.902995
      3          6           0        0.535819   -2.357534   -0.482242
      4          6           0        0.670318   -0.794896   -2.686231
      5          8           0        0.589499   -0.991185   -3.831638
      6          8           0        3.850471   -0.993665   -0.972995
      7          8           0        0.373475   -3.496351   -0.298578
 ---------------------------------------------------------------------

 SCF Done:  E(RB3LYP) =  -407.528946819     A.U. after    1 cycles

 Alpha  occ. eigenvalues --  -19.20372 -19.20372 -19.20370 -10.28488 -10.28488
 Alpha  occ. eigenvalues --  -10.28483  -2.45529  -1.49013  -1.48272  -1.48272
 Alpha  occ. eigenvalues --   -1.10443  -1.10376  -1.10376  -0.55543  -0.54174
 Alpha  occ. eigenvalues --   -0.54174  -0.44620  -0.44047  -0.44047  -0.43336
 Alpha  occ. eigenvalues --   -0.43182  -0.43182  -0.42051  -0.41661  -0.41660
 Alpha  occ. eigenvalues --   -0.23096  -0.22563  -0.22562
 Alpha virt. eigenvalues --   -0.08977  -0.08799  -0.08797   0.01229   0.02007
 Alpha virt. eigenvalues --    0.02007   0.03348   0.03992   0.03992   0.04796
 Alpha virt. eigenvalues --    0.04996   0.04997   0.11963   0.21222   0.21224

 Mulliken charges:
               1
     1  Mo   0.205255
     2  C    0.209754
     3  C    0.209754
     4  C    0.209737
     5  O   -0.278164
     6  O   -0.278170
     7  O   -0.278166
 Sum of Mulliken charges =  -0.00000

 Dipole moment (field-independent basis, Debye):
    X=             -2.3515    Y=              3.9908    Z=              2.6861  Tot=              5.3546
 Quadrupole moment (field-independent basis, Debye-Ang):
   XX=            -61.6402   YY=            -60.9756   ZZ=            -61.9834
   XY=              3.7472   XZ=              3.6321   YZ=             -3.7568

  Exact polarizability:      80.094       8.967      70.153       6.035     -10.235      78.485
 Approx polarizability:     179.332      13.408     164.477       9.018     -15.302     176.927

                      1                      2                      3
                      A                      A                      A
 Frequencies --     93.4557                93.4816               107.6114
 Red. masses --     16.3761                16.3760                18.4856
 Frc consts  --      0.0843                 0.0843                 0.1261
 IR Inten    --      0.7971                 0.7966                 1.7934

                      4                      5                      6
                      A                      A                      A
 Frequencies --    392.0241               400.5061               400.5379
 Red. masses --     12.7177                12.8848                12.8847
 Frc consts  --      1.1516                 1.2177                 1.2179
 IR Inten    --      0.0001                 4.0573                 4.0487

                      7                      8                      9
                      A                      A                      A
 Frequencies --    486.6923               486.7317               495.1545
 Red. masses --     16.4869                16.4870                15.1189
 Frc consts  --      2.3009                 2.3013                 2.1840
 IR Inten    --     15.9631                15.9642                 0.5822

                     10                     11                     12
                      A                      A                      A
 Frequencies --    622.0162               622.0519               663.7872
 Red. masses --     12.9076                12.9077                14.6992
 Frc consts  --      2.9424                 2.9428                 3.8159
 IR Inten    --      1.3347                 1.3446                 1.7559

                     13                     14                     15
                      A                      A                      A
 Frequencies --   1983.9259              1983.9740              2076.6571
 Red. masses --     13.3651                13.3650                13.3039
 Frc consts  --     30.9936                30.9951                33.8032
 IR Inten    --   1144.8632              1144.8751               279.8233

 - Thermochemistry -
 -------------------
 Temperature   298.150 Kelvin.  Pressure   1.00000 Atm.
 Atom     1 has atomic number 42 and mass  97.90550

 Molecular mass:   181.89024 amu.
 Principal axes and moments of inertia in atomic units:
                           1         2         3
     Eigenvalues --  1106.735651106.817781387.76426
           X            0.86841   0.23015  -0.43920
           Y            0.49525  -0.44632   0.74534
           Z            0.02448   0.86477   0.50157
 This molecule is an asymmetric top.
 Rotational symmetry number  1.
 Warning -- assumption of classical behavior for rotation
           may cause significant error
 Rotational temperatures (Kelvin)      0.07826     0.07825     0.06241
 Rotational constants (GHZ):           1.63069     1.63057     1.30047
 Zero-point vibrational energy      65248.0 (Joules/Mol)
                                   15.59464 (Kcal/Mol)
 Warning -- explicit consideration of   9 degrees of freedom as
           vibrations may cause significant error
 Vibrational temperatures:    134.46   134.50   154.83   564.04   576.24
          (Kelvin)            576.28   700.24   700.30   712.42   894.94
                              894.99   955.04  2854.43  2854.50  2987.85

 Zero-point correction=                           0.024852 (Hartree/Particle)
 Thermal correction to Energy=                    0.031956
 Thermal correction to Enthalpy=                  0.032900
 Thermal correction to Gibbs Free Energy=        -0.008464
 Sum of electronic and zero-point Energies=           -407.504095
 Sum of electronic and thermal Energies=              -407.496991
 Sum of electronic and thermal Enthalpies=            -407.496047
 Sum of electronic and thermal Free Energies=         -407.537410

                     E (Thermal)             CV                S
                      KCal/Mol        Cal/Mol-Kelvin    Cal/Mol-Kelvin
 Total                   20.053             22.963             87.057
 Electronic               0.000              0.000              0.000
 Translational            0.889              2.981             41.501
 Rotational               0.889              2.981             28.921
 Vibrational             18.275             17.001             16.635
 Vibration     1          0.602              1.954              3.586
 Vibration     2          0.602              1.954              3.586
 Vibration     3          0.606              1.943              3.312
 Vibration     4          0.759              1.487              0.992
 Vibration     5          0.766              1.469              0.961
 Vibration     6          0.766              1.469              0.961
 Vibration     7          0.843              1.280              0.692
 Vibration     8          0.843              1.279              0.692
 Vibration     9          0.851              1.261              0.670

 Optimization completed.
    -- Stationary point found.
 Normal termination of Gaussian 16 at Thu Nov  4 09:59:04 2021.
