 Gaussian 16, Revision C.01,
 Gaussian 16:  ES64L-G16RevC.01  3-Jul-2019

 ---------------------------------------
 # opt freq b3lyp/gen nosymm pseudo=read
 ---------------------------------------

 -------------------
 Title Card Required
 -------------------
 Symbolic Z-matrix:
 Charge =  0 Multiplicity = 1

 SCF Done:  E(RB3LYP) =  -1661.61401956     A.U. after   15 cycles
 SCF Done:  E(RB3LYP) =  -1661.61403426     A.U. after   11 cycles
 SCF Done:  E(RB3LYP) =  -1661.61403178     A.U. after   12 cycles
 SCF Done:  E(RB3LYP) =  -1661.61403772     A.U. after   11 cycles
 SCF Done:  E(RB3LYP) =  -1661.61403811     A.U. after    9 cycles
 Optimization completed.
    -- Stationary point found.
 Normal termination of Gaussian 16 at Mon Oct 17 13:57:53 2022.

 ------------------------------------------------------------------
 #N Geom=AllCheck Guess=TCheck SCRF=Check GenChk RB3LYP/ChkBas Freq
 ------------------------------------------------------------------

 Structure from the checkpoint file:  "/home/chesagar/scratch/Gau-32477.chk"
 -------------------
 Title Card Required
 -------------------
 Charge =  0 Multiplicity = 1

                          Input orientation:
 ---------------------------------------------------------------------
 Center     Atomic      Atomic             Coordinates (Angstroms)
 Number     Number       Type             X           Y           Z
 ---------------------------------------------------------------------
      1         42           0        2.985026    0.909283   -0.093848
      2         16           0        1.544665   -0.416626   -0.893185
      3         16           0        2.954268    0.945463    2.020234
      4         16           0        2.443854    3.006438   -0.969300
      5          1           0        3.184816    3.727473   -0.098105
      6         16           0        5.146504    0.233324   -0.666867
      7          1           0        4.868473   -0.081414   -1.952008
 ---------------------------------------------------------------------

 SCF Done:  E(RB3LYP) =  -1661.61403811     A.U. after    1 cycles

 Alpha  occ. eigenvalues --  -88.88908 -88.88907 -88.88397 -88.88396  -7.96821
 Alpha  occ. eigenvalues --   -7.96820  -7.96409  -7.96407  -5.93061  -5.93061
 Alpha  occ. eigenvalues --   -5.92740  -5.92737  -5.92471  -5.92469  -5.92459
 Alpha  occ. eigenvalues --   -5.92458  -5.92390  -5.92389  -5.92155  -5.92154
 Alpha  occ. eigenvalues --   -2.57400  -1.60014  -1.59657  -1.59321  -0.74846
 Alpha  occ. eigenvalues --   -0.74257  -0.70469  -0.69447  -0.44553  -0.43993
 Alpha  occ. eigenvalues --   -0.37600  -0.36867  -0.36110  -0.35721  -0.35094
 Alpha  occ. eigenvalues --   -0.32857  -0.31055  -0.30417  -0.27683  -0.26889
 Alpha virt. eigenvalues --   -0.14768  -0.14058  -0.10810  -0.09599  -0.08904
 Alpha virt. eigenvalues --   -0.00957   0.00580   0.02599   0.03161   0.05315
 Alpha virt. eigenvalues --    0.07088   0.16627   0.17176   0.18481   0.28061

 Mulliken charges:
               1
     1  Mo   0.348990
     2  S   -0.173180
     3  S   -0.173181
     4  S   -0.109016
     5  H    0.107726
     6  S   -0.109073
     7  H    0.107734
 Sum of Mulliken charges =  -0.00000

 Dipole moment (field-independent basis, Debye):
    X=              0.8290    Y=              0.7270    Z=             -0.7410  Tot=              1.3285
 Quadrupole moment (field-independent basis, Debye-Ang):
   XX=            -73.6472   YY=            -72.7405   ZZ=            -75.0347
   XY=              3.6033   XZ=             -3.8648   YZ=              2.4989

  Exact polarizability:     117.979      -2.771     118.168       5.857       4.617     121.395
 Approx polarizability:     274.841      17.569     264.177      48.755      36.869     337.373

                      1                      2                      3
                      A                      A                      A
 Frequencies --    119.4923               133.9149               137.9678
 Red. masses --     11.2336                12.8990                23.9824
 Frc consts  --      0.0945                 0.1363                 0.2690
 IR Inten    --      1.2804                 0.9118                 0.9298

                      4                      5                      6
                      A                      A                      A
 Frequencies --    144.7591               174.4299               284.3390
 Red. masses --     21.7641                32.0352                 1.1135
 Frc consts  --      0.2687                 0.5743                 0.0530
 IR Inten    --      0.3402                 1.3463                22.9510

                      7                      8                      9
                      A                      A                      A
 Frequencies --    308.3638               368.9092               382.8717
 Red. masses --      1.0609                18.5719                19.3081
 Frc consts  --      0.0594                 1.4892                 1.6676
 IR Inten    --     49.0733                 5.0601                47.5001

                     10                     11                     12
                      A                      A                      A
 Frequencies --    555.2997               561.0057               642.5305
 Red. masses --     31.3408                 5.7984                 1.0579
 Frc consts  --      5.6940                 1.0752                 0.2573
 IR Inten    --     25.6787                86.5149                 2.8335

                     13                     14                     15
                      A                      A                      A
 Frequencies --    663.2240              2665.0553              2665.5673
 Red. masses --      1.2573                 1.0380                 1.0381
 Frc consts  --      0.3259                 4.3439                 4.3456
 IR Inten    --      3.8378                 3.4758                 2.0943

 - Thermochemistry -
 -------------------
 Temperature   298.150 Kelvin.  Pressure   1.00000 Atm.
 Atom     1 has atomic number 42 and mass  97.90550

 Molecular mass:   227.80944 amu.
 Principal axes and moments of inertia in atomic units:
                           1         2         3
     Eigenvalues --  1428.363501602.506921614.73081
           X            0.74410   0.62331   0.24040
           Y           -0.63441   0.54652   0.54666
           Z            0.20936  -0.55928   0.80210
 This molecule is an asymmetric top.
 Rotational symmetry number  1.
 Warning -- assumption of classical behavior for rotation
           may cause significant error
 Rotational temperatures (Kelvin)      0.06064     0.05405     0.05364
 Rotational constants (GHZ):           1.26350     1.12620     1.11767
 Zero-point vibrational energy      58663.3 (Joules/Mol)
                                   14.02085 (Kcal/Mol)
 Warning -- explicit consideration of  11 degrees of freedom as
           vibrations may cause significant error
 Vibrational temperatures:    171.92   192.67   198.50   208.28   250.97
          (Kelvin)            409.10   443.67   530.78   550.87   798.95
                              807.16   924.46   954.23  3834.42  3835.16

 Zero-point correction=                           0.022344 (Hartree/Particle)
 Thermal correction to Energy=                    0.030617
 Thermal correction to Enthalpy=                  0.031562
 Thermal correction to Gibbs Free Energy=        -0.012437
 Sum of electronic and zero-point Energies=          -1661.591694
 Sum of electronic and thermal Energies=             -1661.583421
 Sum of electronic and thermal Enthalpies=           -1661.582476
 Sum of electronic and thermal Free Energies=        -1661.626475

                     E (Thermal)             CV                S
                      KCal/Mol        Cal/Mol-Kelvin    Cal/Mol-Kelvin
 Total                   19.213             26.005             92.602
 Electronic               0.000              0.000              0.000
 Translational            0.889              2.981             42.172
 Rotational               0.889              2.981             29.692
 Vibrational             17.435             20.043             20.737
 Vibration     1          0.609              1.933              3.109
 Vibration     2          0.613              1.919              2.889
 Vibration     3          0.614              1.915              2.832
 Vibration     4          0.616              1.908              2.740
 Vibration     5          0.627              1.874              2.387
 Vibration     6          0.683              1.703              1.507
 Vibration     7          0.698              1.658              1.371
 Vibration     8          0.741              1.536              1.084
 Vibration     9          0.752              1.507              1.028
 Vibration    10          0.911              1.128              0.533
 Vibration    11          0.917              1.116              0.522

 Optimization completed.
    -- Stationary point found.
 Normal termination of Gaussian 16 at Mon Oct 17 13:58:09 2022.
